22
!ProtoMol (built on Dec  6 2007 at 11:07:07) generated this XYZ file by tcickovs. Time : 10, step : 10, minimal Image.
CT3	        10.5987901913826       -66.9271749684395       -34.4122579414861
HA	        10.4854580661189       -67.5456486286552       -35.3316231544074
HA	        11.7095909848058       -66.9621350094509       -34.1349679119209
HA	        10.3338213156417        -65.845383264044       -34.7359491846175
C	        9.70280449935368       -67.1639229292917       -33.3077946648939
O	        9.92073842825716       -66.6530488503327       -32.2349359183678
NH1	        8.64208428156535       -67.9680593428508       -33.5468960257653
H	        8.52907197150425       -68.5472045287009       -34.3670676551619
CT1	        7.62444267810583       -68.0577177698972       -32.4707542136924
HB	        7.72834551987098       -67.1652961042588       -31.8614363055449
CT3	        6.28594602843579       -68.4606806209202       -33.1005774289699
HA	        5.86452455722924       -67.6296922649986       -33.6767642305308
HA	        6.57429857183542       -69.2834427474827       -33.8123819787337
HA	        5.52264997176387       -68.7499944414418       -32.2789411302519
C	        8.08487182250783       -69.2932767143326        -31.659722913556
O	        8.54213546758702       -69.1958191561574       -30.5584389796696
NH1	        7.95996511660563       -70.5347643327348       -32.2188008274966
H	        7.66149911757467       -70.6192307732067        -33.146411072732
CT3	        8.31711819118907       -71.7359890163125        -31.505647238591
HA	         9.3950516011017       -71.8740690295972       -31.6842821147309
HA	        8.21772567354263       -71.7396679827852         -30.42099110017
HA	        7.77888993838007       -72.6306240570588       -31.9561574546759
