22
!ProtoMol (built on Dec  6 2007 at 11:07:07) generated this XYZ file by tcickovs. Time : 10, step : 10.
CT3	       0.167340578741917     -0.0753584546571681      -0.236046188936562
HA	        -1.2359044639237       0.171790348631819      -0.791320397135478
HA	      -0.389562794049662     -0.0657702933739578        1.01267999181817
HA	       0.625205878155777        1.29697051438634      -0.467641891940457
C	       0.187884081294786       0.159378984274572       0.175269366443778
O	      -0.615265290831517      -0.142959122974173      -0.144816871653173
NH1	      -0.199801321784431       -0.21824066092402       0.125940961406011
H	      -0.226061137950426        -0.0801779680511      -0.851684071253774
CT1	       0.249527423148443      0.0658977660718929      -0.516586636140477
HB	       -1.12338722564838      -0.333240702764291        0.23384670419223
CT3	       0.245443812171878     -0.0120909418096025      0.0723441327279103
HA	      -0.170622854537009       0.149418606560946     -0.0805144874025279
HA	      0.0954498422139947      -0.870098052234239      -0.197918227255387
HA	      -0.283058531491096       0.954620413471509      -0.207127824097201
C	     0.00983709084823905       0.155200932138539      0.0725692961977279
O	      -0.112782351664126       -0.22244967340946      0.0605263466924224
NH1	       0.300960802748058      0.0248344225019456     -0.0889525984684738
H	       -1.57928818254063       0.422650735774636       0.983577050015632
CT3	     -0.0517459308413393         0.2205066207581        0.11626214211521
HA	        1.23686792185962      -0.125396658641995       0.238745931845391
HA	        1.32409504148783      -0.292115595115247      -0.072376755326737
HA	       0.216544884056945       0.410115875752245       0.627157990749329
