22
!ProtoMol (built on Dec  4 2007 at 10:46:51) generated this XYZ file by tcickovs. Time : 8004, step : 2001, minimal Image.
CT3	        7.93283799666458        2.79623523783011       -10.2195847250159
HA	        7.93235341162113        1.94465001988233       -9.50628155561673
HA	        7.87095118125703        2.40780493211285       -11.2593818412168
HA	        7.04254408606373        3.43365571149882       -10.0307402372351
C	        9.18107890149345        3.59409718488309       -10.0589006572354
O	        9.40111707508155        4.58936915748409       -10.7397782420598
NH1	        10.0710302164721        3.18491880679846       -9.14401250685985
H	         9.9161295743583        2.35995384683147       -8.60123056175732
CT1	        11.2717094983577        3.95489025021225        -8.8350735617754
HB	        11.1036584153942        4.99653709026523       -9.08003535526439
CT3	        11.6366119760288        3.92009479402155       -7.32829619924607
HA	        11.6114053965136        2.87779740514904       -6.94929582175459
HA	        12.6349071168377        4.36077579154457       -7.12116451832401
HA	        10.8660854961389         4.4887834643106       -6.76376975625709
C	        12.4384272613146          3.490530756541        -9.6832447698924
O	        13.4438954431301        2.95611797676036       -9.21876488204401
NH1	        12.3036006030827        3.71828795736135       -10.9979388696638
H	        11.4193509105571        4.09710237924082       -11.3124688954545
CT3	        13.3197232872584         3.4333557151748       -11.9766555983376
HA	        14.3420038930631        3.49308416647543       -11.5383558215044
HA	        13.1848379428486         2.4072113924851       -12.3831391893879
HA	        13.2413905334366        4.17496621725098       -12.8013953796892
