22
!ProtoMol (built on Dec  4 2007 at 10:46:51) generated this XYZ file by tcickovs. Time : 8004, step : 2001.
CT3	     -0.0966565544589272      -0.219289221315624      -0.271161267789383
HA	       -1.03025633390803      -0.576211131545368      -0.133199197561298
HA	      -0.458820775513591       -0.16620584274281       0.216696863882515
HA	     -0.0522915253389861      -0.596939370220151       0.518098797525277
C	      0.0565976446082936       -0.20306235450643      -0.315998351086789
O	       -0.11717313605387        0.17861452360743     0.00206590331846664
NH1	      -0.233250830818139      -0.142494093588325      -0.494125656149128
H	      -0.246881279776925      -0.323561794354431      -0.250979877266472
CT1	      -0.135257428905918      -0.119919025618201       0.137010862694456
HB	      0.0631731617579949      -0.550597969654338        0.33816230475153
CT3	         -0.309780781854     -0.0503639515612173      -0.023966710211934
HA	        0.11324776172582       -1.01864198101214       0.117874209945672
HA	        1.52507162249461        1.02882758920484       0.503225255036617
HA	       0.976183930434051         -1.162012124062      -0.966701981324512
C	       0.302337873524156       0.132022569587738     -0.0772544110044157
O	       0.394753869288952     -0.0337944911881833      -0.201736191048332
NH1	       0.276321474276592      0.0791045208285981      -0.204323850819504
H	      -0.492121803960639      -0.252812889302177      0.0624736590306461
CT3	       0.221391601022945      0.0833726816349735      -0.103047044772955
HA	      -0.429492436946591      -0.827564844247397       0.240250841217163
HA	       0.338357236971122     -0.0727431434602643      -0.101899595130326
HA	      -0.158887059804881       0.180586484849319      -0.140591854919478
