648
!ProtoMol (built on Jan 30 2006 at 10:16:07) generated this XYZ file by shampton. Time : 49999.9999995529, step : 500000.
SPCO	      0.0527719709945324      0.0510948551807236       0.207482722122328
SPCH	       0.106538091391802     -0.0414924247741434      -0.393140267679562
SPCH	      -0.429344951877298       0.809799598877252       0.819267327529244
SPCO	       0.203604221319145       0.314450969453253        0.21638593271058
SPCH	       0.247429905502222     -0.0946117094162791       0.699496239310267
SPCH	      -0.166573517411492       -1.52777382744526       0.617078450131608
SPCO	      0.0395011210619338       0.246324068025961    -0.00176040887656247
SPCH	        -1.1366699450646       0.877007792454282       -1.40842289481422
SPCH	        1.01576219229999        0.95780668272339      -0.607906297432812
SPCO	       0.100638995801135      0.0514789211985017       0.268447364983943
SPCH	      -0.522495954592015      0.0984212835364182      -0.635592139988562
SPCH	       0.796989288240073       0.205054794766229         1.1085804279834
SPCO	       0.294736648480988     -0.0651215858615442       0.153796078885488
SPCH	       0.419493288911091       0.551737823074213      -0.234592489122881
SPCH	    -0.00759513131254957       0.689704641927812      -0.107623809954814
SPCO	      -0.177739384705728       0.301291226513978      0.0675934289284659
SPCH	       0.443064707888628       0.108132382452705        1.25562060886067
SPCH	       -1.05914418802687      -0.577477908676065       0.389220171867084
SPCO	      -0.233987363301834       0.291928684869864       -0.23005030795633
SPCH	      -0.560999829856895        1.60018537856497        1.30268621226592
SPCH	        -0.6124405756642      -0.817619512281607        1.44679530408404
SPCO	       0.288056366485652       0.491094427058682      -0.130098110761188
SPCH	       -1.07653043663636        1.26921465384582      -0.968029172661607
SPCH	      0.0878593583498247        1.25708010143119      -0.910077447136344
SPCO	       0.338080458329897      -0.216209585996778       0.134313468769332
SPCH	      -0.794168005494863      -0.193153374266781     -0.0672576313114566
SPCH	       -1.44739210440919       -1.23609605652463      -0.503233286694804
SPCO	       -0.25478705493745      0.0889286240373167       0.311264395934618
SPCH	      -0.142372752375789      0.0316957672573278       0.393742256611885
SPCH	      -0.238131461347498      -0.698385337967641       0.756237229093679
SPCO	      -0.114574942159738      0.0279842874096741       0.277243120329927
SPCH	       0.482539088475969        -1.0146334563635       0.173637924216982
SPCH	     0.00412329702393387       0.238610119101882      -0.921606180277051
SPCO	       0.150949358524299       0.280233237899522      0.0507972806474716
SPCH	       0.285863201182318      -0.811313738218378       0.875041622137855
SPCH	       0.220514045382638       0.211579523867253       0.256805708156646
SPCO	      -0.429523542115149      -0.185368086166622      -0.436128027781752
SPCH	     -0.0423826125264968      -0.547707361714025       0.609589242922939
SPCH	        1.31487111694022       0.556872758277255       0.796760366557074
SPCO	      0.0839236416371028     -0.0262980742913871      -0.282999797715648
SPCH	       0.133972872733317      -0.390778484125719      -0.501609345537018
SPCH	       -1.56248467602121       -1.22660597284585       0.549943443328669
SPCO	     0.00848056241503802       0.335810690448708       0.132694859658012
SPCH	      0.0332217213412994       0.744391946822312    0.000996263959170887
SPCH	      -0.133983998476249       0.276060123956956      -0.906899441039515
SPCO	      -0.181745034402574       0.288120190384762      -0.171593903711134
SPCH	       0.822534067126012     -0.0768042863706269       -1.13500529635661
SPCH	       -1.12717990343947     -0.0301000969018319       -1.42566644066156
SPCO	     -0.0412958922866925    -0.00560562019462929       0.201613693930559
SPCH	       -1.42673723790777      -0.356970030149031        0.36022738186942
SPCH	     -0.0957719968981585       -0.32075192357063        1.05818722743749
SPCO	       0.119213460483762        0.16323394813933       0.176764255220911
SPCH	       0.871524027730451      -0.967409326654018         0.1278730310773
SPCH	       0.647919240003677      -0.451389100008895        -1.1361457603001
SPCO	     -0.0793207587217223      -0.304005667296119       0.121980765072105
SPCH	     -0.0148770993808242      -0.740078256926171      -0.223433167146742
SPCH	      -0.318973188458842       0.322147282672202       0.956467689687906
SPCO	      -0.117738666886274       0.104355184258463       0.323031220076744
SPCH	      -0.722824970833153      -0.228519389027598      0.0637870521675467
SPCH	       0.483426503001507       0.402825663492491       0.548759773831884
SPCO	      0.0340532509562894      -0.089280895219646     -0.0199297560837416
SPCH	      -0.721659244621271       -0.21903853420847       -1.20349028729416
SPCH	       -1.45804754851111       0.188640800891108      -0.636936031159093
SPCO	      -0.228123155049784      -0.193670878449883      -0.271380380978197
SPCH	      -0.226384498123949      -0.927850046608773       0.378917042436753
SPCH	      0.0816485532471282       0.930867881237631      -0.178656243061939
SPCO	       0.331691648473185        0.04977183765648      -0.169546781363524
SPCH	      0.0344920369605373       0.362730518748242        1.19889427712728
SPCH	       0.669738289608215      -0.935990030297139       0.489541150257897
SPCO	      0.0766522529355264       0.231938527572374       0.144238245748264
SPCH	        -1.2496226331283       0.449101887449703     -0.0693996170099425
SPCH	        1.46567332505755      -0.976589910953151      -0.867891860585748
SPCO	     -0.0161632156569599    -0.00813591277145962     -0.0962951053044045
SPCH	      -0.166616695763224      0.0261575621738452      -0.840644526901036
SPCH	       0.624835229666791      -0.550059981387775      -0.341231570881106
SPCO	       0.051486705041924      0.0378220575102969       0.235119065868064
SPCH	       0.685358976602267      -0.539927595520191        -1.5011089161147
SPCH	     0.00588105386954196      -0.235858839503395      -0.444092067638835
SPCO	        0.29189884359038     -0.0210105970133582      -0.131698749141841
SPCH	      -0.863960166054447       0.658377971790842       -1.57138322745623
SPCH	       -1.18737480641581       -1.66728260291843        1.07856076033189
SPCO	      -0.101887331807662      -0.153702139812049       0.203982740080617
SPCH	       0.756249064064321        1.37539373507496      -0.441297734411781
SPCH	      -0.293144628180748      0.0904702875225356       0.459037605586425
SPCO	      0.0785194788052324       0.313874076435962      -0.134508031441868
SPCH	       0.266171212151802        1.70274364368669      -0.395601513060804
SPCH	       -1.89095306404362     -0.0204419269861278      -0.342824190644416
SPCO	      -0.136747850504412       0.150851408651566      0.0728753150529542
SPCH	       0.377515913952314     -0.0816236913920781      -0.884542961650729
SPCH	       0.338004774556046      -0.451336313754898       -0.41529194044398
SPCO	      0.0822204433329691      -0.211359145244283     -0.0707578804835101
SPCH	       0.628659756316881       0.518336005528467      -0.898662708544025
SPCH	       0.383401129839512      -0.131784503112444        1.47289777366462
SPCO	      -0.140747623388678     0.00769801394485626      0.0553075902947778
SPCH	      0.0442929247511893       0.341503637363112       0.317871547359236
SPCH	      -0.678088585259829       0.148864920547021       0.796549793676277
SPCO	       0.105273896101407      -0.145352967647877      -0.384090612440923
SPCH	         1.3432709402274      -0.121075305792757       -1.00405105591464
SPCH	       -1.35138500418656       0.697052075882416      -0.571099375316602
SPCO	      -0.262117694701391      -0.310709350885754      0.0184030913408325
SPCH	       0.122380133473062       -1.20640323552042        1.41038049006386
SPCH	       0.519160270943689     -0.0637357249526103       -0.52480150697489
SPCO	    -0.00253462579300316       0.405770878697346      0.0133681079379379
SPCH	       0.362115659077782       0.672257315642882      -0.540489323980371
SPCH	      -0.823059692830252      -0.808495186955792      -0.566084887139973
SPCO	      -0.315350307069267      -0.250513918521422     -0.0937927451819179
SPCH	      -0.471168170008342      -0.783436833366657      -0.301193251756838
SPCH	         1.3696480221153      -0.616960529319418       0.266874698202545
SPCO	       0.492502976141771       -0.24288422025547      0.0020033824644139
SPCH	         0.3472929992834        0.27321857838299      -0.891239167717083
SPCH	       -1.37752950127185      -0.641147824882518       -1.35707247724134
SPCO	      -0.150855147989707       0.294649637069416       0.261509259917097
SPCH	      -0.574834638438779       0.754019777135827       0.764975991929135
SPCH	       0.515477700411484        1.06850978527368       0.317688439315436
SPCO	    -0.00715991058619368       0.040772074585021      -0.134813449002006
SPCH	       0.364853762031373     -0.0559653764347052     -0.0985366339227386
SPCH	      0.0568765624287419      -0.380505974211393      -0.511450202684635
SPCO	       0.129772263897072     -0.0279355217372379       0.114900803743332
SPCH	        1.25685425938333     -0.0976191105807572       0.450467367514552
SPCH	      0.0269231695893508      -0.670132280182895       0.770522601972574
SPCO	       0.243338524545222       -0.11231779473023     -0.0191419625041656
SPCH	        -0.1981082655408      -0.484406958642503       0.201981035614839
SPCH	       0.426809541088255      0.0222453687490548       0.852484650286121
SPCO	      -0.211103909120699     -0.0608595340119651       0.357320917883453
SPCH	       0.325625951090407        1.43148775878062      -0.220120976825098
SPCH	        1.46087531169597      0.0376403699468157      -0.692425595099736
SPCO	      -0.106144566281746     -0.0935970249007337      -0.224368564902024
SPCH	         2.1149735521082      -0.644387743595442       0.118131960261819
SPCH	       0.903207531942691       -0.48427168100357       0.891174423128536
SPCO	      0.0847129964199085      -0.135902514984526     -0.0170951204307549
SPCH	       -1.50459923953926      -0.320276868889893       0.583236241892123
SPCH	         1.1886020375118      -0.076720544604352      -0.155449969039446
SPCO	      0.0508007080747332       0.273480743020653      0.0301227557813442
SPCH	      0.0742883840838549       0.548533132740617        1.02160537159043
SPCH	       0.545684203327431        1.49373683491832      0.0023946089436435
SPCO	     -0.0224103139101573      0.0540791229766181      -0.165501428458352
SPCH	      0.0164735990373854        0.19302031627335       0.617089068529007
SPCH	       -0.31326723610548        0.81030306802778       -0.11063468063911
SPCO	      -0.233145662664131      0.0544572975491547       0.129102847272024
SPCH	     -0.0666586874406429       0.183766337899396       -0.60312979399962
SPCH	        1.29155309119322     -0.0507280500600768       -0.13063183781462
SPCO	      0.0688779559943979       0.242862944881505     -0.0369401532918164
SPCH	        1.95634068380234        1.43864566625742      -0.892548444369739
SPCH	       0.139592530822397      -0.108283016102571         1.0539675170036
SPCO	      -0.224227712433538       0.194464617242913     -0.0117750495527847
SPCH	      -0.823257362990873       -1.03456513598106        1.37950374664139
SPCH	      -0.395075142653648      -0.264806357137225        1.04183398112694
SPCO	       0.200788876107035        0.11087262829999     -0.0121979098189379
SPCH	      -0.350750480965385       0.368071210053457       0.407152732823442
SPCH	       0.120022312924729        1.12798953490623      -0.893617132742417
SPCO	     -0.0949600328395797       0.224503629720742     -0.0652825287472242
SPCH	     -0.0384312577111755       0.506980560568122       0.388554375505533
SPCH	        0.65326420481006      -0.610482913447022      -0.358897079604962
SPCO	     -0.0807749466587626      -0.149503027006907      -0.386948373925084
SPCH	       0.357323370470733      -0.352445823981752     -0.0747116160567242
SPCH	       0.895434647720017       -2.31648282084543       0.270811737644824
SPCO	       0.150148759077874      0.0293847024543112      0.0569830902343921
SPCH	      -0.391229387013252        1.18864564739705      -0.768347299332316
SPCH	        1.46639021012658       0.644196651059568      -0.301238735388672
SPCO	       0.270593523259966      -0.140162845439059      -0.082886004061234
SPCH	       -1.36068077504631       0.198718701006858      -0.572852061275989
SPCH	      -0.287748964093995       0.230364681093104       0.677643646215247
SPCO	      -0.373591646515196      -0.128375861267475       -0.29801347261043
SPCH	      -0.201170343067816      -0.178611067705575      -0.520122577893514
SPCH	       0.132708871277882       0.160033474612264       0.456752896882409
SPCO	      -0.159001038315675     -0.0803379295841664      0.0629172808740228
SPCH	       0.208341914659238       0.648748576002605      -0.928806688022099
SPCH	      -0.486353448477622         1.4572379387994       0.855092609582494
SPCO	     -0.0493037259731358      0.0808062438057033      -0.384137663521682
SPCH	        1.77057140997196       0.221488754893901       0.280729321049349
SPCH	       -1.52932182791658        1.02159364424347       -1.76687455201873
SPCO	      -0.138148594151207     0.00174165093365756        0.15571443927275
SPCH	      -0.373716182957299      -0.479506842634701      -0.359949659024249
SPCH	       0.491996068738055      -0.294759957253277       -1.57297049245451
SPCO	     -0.0430148070807906       0.194736135905059      0.0889131072687128
SPCH	     -0.0807192201521914       0.334949434878154      -0.916157452221383
SPCH	       -0.39478027543736       -1.62175201414382        1.05208573390714
SPCO	     -0.0879073961498995       0.180389917233073      -0.299721881546382
SPCH	      -0.154326470037527       0.325512584207761       0.123124460980659
SPCH	      -0.100855098230914       -1.52985643696392      -0.614586412540877
SPCO	       0.371331942028932     0.00945858397614269       0.291989616514246
SPCH	      -0.183664669308708      -0.662113930921521      -0.417068143231444
SPCH	       0.564776795718131     -0.0924270278183404       0.737423069222836
SPCO	      0.0886989923952975      -0.253949473619539     0.00627313735798716
SPCH	       -1.08240249575243       -0.36156375215684       -2.14133867083724
SPCH	       0.503883501807068       0.792693209932831      -0.388907055574015
SPCO	   -0.000823597151460732      -0.147151846329651      -0.326980710740177
SPCH	       0.151443855078608       0.926814163956484       0.901273832622208
SPCH	       -0.29605094694173       -0.81433897624453        0.33417084311728
SPCO	     0.00917337492852641        0.27315152444775      -0.418460364844239
SPCH	       0.615001783987656       0.734821930402184      -0.369241634923971
SPCH	      -0.787718551635969      -0.353682127093395      -0.593787291190338
SPCO	      -0.279282999922417      -0.628102960454388       0.281690556083486
SPCH	       0.921046409521126       -2.14650641788195      -0.915800989332784
SPCH	       0.517987690805333      -0.046576083202014       -1.17396250087798
SPCO	      -0.207627653134573      -0.046422709282062       0.100003653807928
SPCH	       0.381637094570014       0.465373631219226      -0.199262531137008
SPCH	        0.25867066752777       0.400860000486877       0.538266274038707
SPCO	      -0.224863274457839      -0.148012925545596       0.307658422694061
SPCH	       0.346829382355155        1.18313807555838       0.774442389047824
SPCH	         1.1668033884804      -0.644825150593181       0.911103455405537
SPCO	       0.176642648737272      0.0476863499914453      0.0940533501609295
SPCH	      -0.701384810841025     -0.0850051722583928       -1.50421251059696
SPCH	      -0.307115670277808     -0.0640658392435277      -0.384321584579153
SPCO	       0.350609529882227       0.349220323861514      0.0940492072834778
SPCH	       0.488703258086298      -0.472652361253306      -0.368567172443329
SPCH	      -0.136410398510182      -0.599942442104815       0.405986962626434
SPCO	      -0.314324645584473      0.0953241561108643     -0.0294351452975722
SPCH	       -1.59943673790721      -0.442085983104867      -0.589363498097886
SPCH	       -0.41112288896757       0.271457635664789       0.126086767245277
SPCO	      -0.375717184534232      0.0274905896487097      -0.166229521990087
SPCH	       0.411137417740999      -0.238950647217484       0.730137560621822
SPCH	        1.57261850336836        0.63550771344207        1.09482697179665
SPCO	      -0.274179284576373       0.408506304011568     -0.0499918372674868
SPCH	      -0.543108497955643       0.434854645520978      -0.779802627625773
SPCH	      -0.120036605851878       0.615642839194433        1.13943584316138
SPCO	      0.0112245612260855     -0.0136766324109613      -0.137289771445875
SPCH	       0.345448530039626       -0.43241176936599       0.310181260022649
SPCH	     -0.0883078277172876      -0.587452976050011      0.0369841530480549
SPCO	      -0.165547012539381     -0.0372982452297514      0.0389662817827257
SPCH	      0.0315612942894154       0.531223384744315     -0.0486715474034075
SPCH	       0.897618260601747       -1.15468124479535      -0.400860834392713
SPCO	      0.0233189837013808       0.222812815452229      0.0246427392968207
SPCH	      -0.355444727233525       -0.41022494098464       0.287684420642685
SPCH	       0.589915920459646        1.88027841224723       0.227374843417974
SPCO	       0.113082617920176      -0.328000524056977      -0.296680572915988
SPCH	      -0.768885966583579       0.699740495935348      -0.513789196434791
SPCH	      -0.986807439474572      -0.344188680888829      -0.561579000985124
SPCO	      -0.298741712697586      -0.626777708505411     -0.0773431222594791
SPCH	       0.261364360321299       0.337495556146394       0.368908652922223
SPCH	       0.834371259831068       0.581856350873784      -0.246000570809579
SPCO	      -0.230677282692986      -0.180276877880877       0.116575361255298
SPCH	        1.25788543559681       0.274283484170709        0.14418861122912
SPCH	      -0.567530733912191      -0.507158707173568       -1.54850212624068
SPCO	       0.168390423438794      0.0840596686367767      -0.104573956075186
SPCH	       0.548700691942492      0.0882135731070295       0.640661169840655
SPCH	       0.801206477423604        0.37365689976366      -0.191274279994829
SPCO	       0.236227886378381     -0.0060320580556391      -0.375061793885512
SPCH	      -0.644805207489269       0.779015420308726      -0.159137199504893
SPCH	      -0.632578288444803        0.40134847391474       0.773874933396426
SPCO	      0.0146254623659173      -0.102358221532542       0.188307668363688
SPCH	       -0.89639593871019       0.120594708378792        1.32889713385082
SPCH	       0.421438101111129       0.306052555604604      -0.233033415160892
SPCO	      -0.219579395770903      0.0502922852810751        0.14080331892495
SPCH	      -0.137247553371539      -0.153554481412012       0.671835299757039
SPCH	       0.627160752835385       0.709455764570204        1.51542321193886
SPCO	     -0.0131966566095341      -0.110733058336683    -0.00601370815949971
SPCH	       0.521488549795745      -0.358368500639455      -0.612271877872842
SPCH	       -1.19595721373824       0.168791867797909      -0.411380844645684
SPCO	       0.158994813158652      -0.139072512664992       0.241080755330087
SPCH	       0.240984822592156       -0.40802178429079       -0.34435077808674
SPCH	       -1.54850950040795      -0.786770164107801         1.5385065538166
SPCO	      0.0210667323289115       0.331015038426462     -0.0809017041580788
SPCH	       0.570138740815772       0.237773620984527       -0.47694559281947
SPCH	       0.676271347227357      -0.621961591896798      -0.299873923152156
SPCO	      0.0398407400171788      -0.371419525099827      -0.205928763791957
SPCH	      -0.102107619744486      -0.075137146783854        2.08232646601218
SPCH	      -0.126301513851571       0.380156124841847        1.08245101350901
SPCO	      0.0687795076155046       0.191074184920852     -0.0827284664542823
SPCH	       0.612838534758055        1.30592662604473       -0.11970204194038
SPCH	       0.250553751684389      -0.681022249956456      -0.870438979536393
SPCO	      -0.139329767475708      -0.230479210931255        0.11955150378933
SPCH	      -0.270745167097396      0.0582069513137735      -0.612138448647588
SPCH	       0.174555456600419        1.29269120953892       0.596687265941007
SPCO	        0.12172195105118       0.110103413038997      -0.138616925088792
SPCH	      -0.783137321488206     -0.0227522397815313       0.401238000335037
SPCH	      -0.535688462929838      -0.504273787079345        0.05317222379016
SPCO	       0.463630201373461       0.204667255239556      -0.388904771581392
SPCH	      -0.139726331497572      -0.123581456673925       0.190203339084229
SPCH	       0.294596400719815      -0.676235120362997     -0.0482913740104993
SPCO	        0.11276228737108      -0.185478894630341       0.190695474038711
SPCH	      -0.189358521105809       0.926072674820583       0.476323810860517
SPCH	        2.38411204029816      -0.948483686094731      -0.503220687993122
SPCO	     -0.0445087448637929       -0.42906290589576       0.241090678410109
SPCH	      -0.284965359638885        1.22083846266845      -0.350477478194219
SPCH	       -1.61901620967983       0.293060536499794     -0.0886901385177369
SPCO	       -0.18533653687121     -0.0487162384983815      0.0777995862377712
SPCH	       -0.77114198617123       -1.18764611427944       -0.44428117548813
SPCH	        1.33783866371885      -0.699709814910711      -0.437330772887062
SPCO	      0.0821813549010177      -0.158346618341077      0.0812593831393393
SPCH	      -0.413562861699612      -0.406900707160532       0.811128625186126
SPCH	        0.86095572169168      -0.675181210907021       0.227285783178459
SPCO	      -0.188133783634255      -0.355636879126008     -0.0136943949085999
SPCH	      -0.672927076483264        0.99685034151347         0.8449315350491
SPCH	      -0.860069464689333       -1.13447339655934       0.885488153041448
SPCO	      -0.202625597067547     -0.0473571751255394       0.235237251139537
SPCH	         1.1387672316767       -1.81321278113848      -0.535831441247223
SPCH	     -0.0239690114333818      -0.646643093584127      -0.749480670961344
SPCO	        0.15542311461314       0.152702176397416      0.0060701977692886
SPCH	      0.0329153970561974     -0.0897957000112964         -1.344521311409
SPCH	       -1.04344531360251      -0.293650727808853       0.178138916157778
SPCO	       0.112922690843799      -0.167694890188745       0.120447964040626
SPCH	     0.00400082543089424      -0.591639796422514        1.35304153217984
SPCH	        1.12983159202658      -0.554838580586754      0.0533756373385675
SPCO	      -0.203431214623877      -0.108132933345927     0.00601868488786604
SPCH	      -0.110338956260792       0.353395778481335      -0.443521718919799
SPCH	       -0.28461924401584       0.282422580348869      -0.915873169683116
SPCO	      -0.289881339847906      -0.135624014573161      -0.282139507904082
SPCH	       -1.15810506043834       0.778880770026587       -1.25868968044287
SPCH	     0.00931973325742285      -0.669207001525855        1.67684682202494
SPCO	      0.0541920868981536     -0.0441996169609357      -0.275895773925167
SPCH	       0.170741483227678      -0.317188128271418      0.0681942356548985
SPCH	       0.460392300305712      -0.346030289257274      -0.245345728591679
SPCO	      -0.137215058203202       0.581327642224107        0.39151154424479
SPCH	     -0.0814900520096096       -1.17813520336416      -0.361942451095615
SPCH	        -1.6357152348652        1.20213146234417      -0.419711207347568
SPCO	      -0.256268184461708     -0.0194228769834641       0.318201789931691
SPCH	        0.17846161501001       0.612678355243421      -0.618601236494822
SPCH	     -0.0393205525126257        0.38635124163424       0.205563233884974
SPCO	     -0.0998685799397167     0.00479147860028329       0.154610189213375
SPCH	      -0.615407471464265       -0.61323438373912       0.772965800527847
SPCH	      -0.092341670625258      -0.350760975507534       0.599706193733468
SPCO	      -0.104870076156769       0.164031251145583      -0.190886905069418
SPCH	      -0.951510029297894      -0.499490116808799       0.524893074874719
SPCH	       0.104473971781063      -0.283176077184016        -0.6461220099427
SPCO	      -0.376714366855253     -0.0155588505080814     -0.0347644219846027
SPCH	      -0.455321133081653     -0.0925735272506868       0.660307642949664
SPCH	      0.0617398934977801      -0.347395847591911        1.11376878270351
SPCO	      -0.185149493664185      0.0499237348203716       0.111685617978671
SPCH	       -0.99413810858722      0.0448219514206172       0.179749688386786
SPCH	        -1.8317893032308       0.115742650524551      -0.302708445028394
SPCO	     0.00555562210361854      -0.350963040986082       0.309222310186747
SPCH	      0.0839173650253236     0.00903983635944326      -0.583481882835933
SPCH	      -0.202103375317695       0.901599676374706       0.135348094553506
SPCO	      0.0598957343203606      -0.179875483455816      -0.480919161439377
SPCH	      -0.140824174901149      -0.123110011105467      -0.614536953715894
SPCH	       0.115249850035803       0.432463558542606      -0.566579959330545
SPCO	     -0.0166155751020479      -0.173482016245839       0.231335868891705
SPCH	       0.418099771100184      -0.036583525452203      -0.991721481434346
SPCH	        2.43120857256173      -0.147326554034651      -0.920755821543091
SPCO	     -0.0611815490012574       0.174558306149054       -0.20893999128813
SPCH	      -0.261598981966968        1.24922107718312       -1.20017190331801
SPCH	       0.234802417746935      -0.612225196555504      -0.765522980491066
SPCO	       0.251521232591712      -0.142586009497449    -0.00308125013451528
SPCH	       0.128032046440298       0.654046784021714       0.435232778026516
SPCH	       -1.01114486225643      -0.123356572529792      -0.487249358803067
SPCO	        0.12145281839185     -0.0179291100213184       0.538753620706817
SPCH	       0.194150407828641      -0.445809984968846       0.168809410279333
SPCH	        1.70008564565755      -0.324483813039631      -0.625159657334048
SPCO	      0.0301222805542295      0.0288760903159371       0.258061913581139
SPCH	       0.763213846052557       0.042256500028512       0.720065635160765
SPCH	        1.59072850469744       0.464439018137731      -0.171719710108864
SPCO	      0.0288670823887665     -0.0618731608233313      0.0366495331111398
SPCH	      -0.809174697542925      -0.495745241118284       0.328276368333886
SPCH	        0.04512354034553      -0.140286496620235       -1.91796746421891
SPCO	       0.106596737028485       0.284699036950655       0.029923086986962
SPCH	        -1.0175587062839       0.343005861979361       0.055418307195267
SPCH	      -0.348021720010128      -0.655242968232291       0.381095016237272
SPCO	     -0.0774000729078628       0.243494023031666      -0.019670166704439
SPCH	       0.969497291705081      -0.339070472976215       0.563562334523802
SPCH	       0.525455133684218       0.351702498836345       -1.27065687119247
SPCO	      0.0150266311114615     -0.0571061523368975      0.0659528085437353
SPCH	      -0.784739281336726      -0.741216266613158       -1.22068851498264
SPCH	       0.290407492405743         1.2175444051357       0.169322398095993
SPCO	      -0.176810753636376      -0.253863320551853       0.350711602949504
SPCH	       0.588629297001122       0.267940160749062      -0.345998124438222
SPCH	      -0.328625310877408      -0.550403561245016     -0.0438122118705042
SPCO	       0.356850111803038      0.0470209699539387     -0.0195342481943128
SPCH	      -0.404554492775343       0.447637065620101      -0.748579643718804
SPCH	      -0.829318120392512        1.52484631509424     -0.0449765171417861
SPCO	       0.207948302337581       0.154259919551334       0.160196266296103
SPCH	        0.86561858596939       0.994681415271528      -0.272235685059984
SPCH	       0.143502644892428       0.921098323108051        1.34380610192428
SPCO	     -0.0744963066733154      0.0534706535837781      -0.147176361048252
SPCH	      -0.452087108731659      -0.353478832335906       0.355383167171228
SPCH	     -0.0244451780576783       -0.88063168538642       0.305376640337862
SPCO	      -0.347816225559497     -0.0904622411319636        0.24665679000035
SPCH	     -0.0581082166891377      -0.749204712062838       0.806974351236109
SPCH	       -1.09058886916176      -0.237850696789989      -0.300097864442717
SPCO	      0.0235222323803681      0.0105134266700463    -0.00546227895031623
SPCH	       0.331711640063401       0.210642391157602         1.0115853468099
SPCH	       0.427864356662169      -0.854396432260411      -0.809921965890123
SPCO	       0.299984405950537      -0.206152175559958    -0.00761040372749451
SPCH	      -0.399510811106946       0.583375479258261      -0.554720942302679
SPCH	      -0.551392625833593     -0.0792213618722779      0.0966234762343939
SPCO	       0.378165141322542       -0.22278189111104     -0.0166135598986455
SPCH	      -0.372585817639277      -0.950839741387715        0.45249812905059
SPCH	       0.972599511617728       -1.04342604137218      -0.329614169800935
SPCO	      0.0167814535118746      -0.131049065226909      0.0620699770501849
SPCH	      -0.207345618748977       0.480311941875144      -0.118074390317124
SPCH	      -0.544671975445901      -0.735281025013615      -0.206863023805961
SPCO	     -0.0334573197695138       0.557643377525601       0.186559556316116
SPCH	        0.18580395705466       -1.14196007293751       0.259283155597854