600
!ProtoMol (built on Mar 14 2005 at 12:49:52) generated this XYZ file by tmorrow. Time : 150000, step : 150000.
U1	     -0.0442614671599881      0.0251006176990221     0.00813494862270984
U2	     -0.0208282854799604      -0.113194029341783      -0.123503051205379
U1	      0.0470142391567999     -0.0954525105415372     -0.0587153428908258
U2	      0.0804959272297486      -0.112482636389011      -0.101425089518392
U1	      -0.145318938006489      -0.175641278214414       0.165329150064018
U2	     -0.0056002602259673      0.0258475231583547      -0.200773220046172
U1	       0.212694880337571        0.21785236320381     0.00569678637675742
U2	     0.00635452214790921     -0.0051008249387794      -0.363050246649992
U1	       0.203808751857438       0.249344362544146      -0.180330714064918
U2	      0.0975180160465357     -0.0204865900564246      0.0407013745853332
U1	      0.0791608169168046     -0.0150184448576996      -0.179696650394829
U2	      0.0717047423375753      0.0206866643292066      -0.200657824688512
U1	      -0.100215848484717      0.0327343526609303      -0.100609387752064
U2	     -0.0162105560029493      -0.120762360636644       0.172576400177686
U1	       0.109708945829151      0.0332040261999984       0.101721502035374
U2	       0.191517887019582      0.0428686377188092    -0.00476920998974184
U1	       0.274066178848981        -0.0505015652506      -0.210753586268064
U2	      -0.081508790403363     -0.0706876878865936        0.16731151346229
U1	      0.0433405087335432       0.266838157125966      -0.274675457501046
U2	      -0.121125756618561       -0.19843368360688      0.0564376947196999
U1	       -0.11701027539354      -0.128258103242132      0.0510342525167413
U2	       -0.12242716089361      -0.116353424482496       0.104421198383544
U1	      -0.018048966163274       0.153383929859246      -0.194275594810086
U2	      -0.105309193668332     -0.0368226620718174     -0.0538962431217608
U1	     -0.0380795406691426     -0.0955585729968143      -0.133194028901849
U2	     -0.0409866175134875       0.156869523011455      -0.277880619192729
U1	      -0.062279545995353      -0.180592196366519       0.028353591036088
U2	       0.107577419151451      0.0815124522411011       -0.11703085919391
U1	     -0.0891194571509368      -0.033345899752996      -0.130526011042113
U2	      0.0380625553536505      0.0264014266813765     -0.0847094865993934
U1	       0.142152863733736      0.0828497268370922      0.0486323066606187
U2	      0.0888579625112905      -0.063299412536073      -0.257302331594154
U1	     -0.0136505124704253      -0.133727284525603     -0.0214666876451991
U2	     0.00612805360174051      -0.271153327227359     -0.0230379115198332
U1	       0.108060326282101      0.0630829304139262      0.0875134545908432
U2	      0.0238794700916264       0.118705430817117     0.00256442387047506
U1	       0.102509612787298       0.101274152418696      -0.122236055482272
U2	       0.185805738347695     -0.0130472284524745      0.0857324127476997
U1	     -0.0369328536616294       0.146968971589518       0.215710871113814
U2	      -0.399518004616616     0.00575332637081551       -0.17168194048715
U1	     -0.0211151263912897     -0.0567309481899465      -0.113506183613686
U2	      -0.287022312002219       0.175243639591518      -0.156297188290648
U1	        -0.1675141489346      -0.108388483885226      0.0820094270767762
U2	       0.150484481502655      -0.294603002775365      -0.159833693494385
U1	       0.326242611127261      -0.141975355221064       0.159740858562344
U2	       0.310966791916254       -0.25048408309883       0.166397600391613
U1	    -0.00822122490232206       0.131346672195958       0.119691065337118
U2	       0.152389908348044       0.135511924179551       0.278353573948236
U1	      0.0581181558285639    -0.00501701272646484       0.150599854845407
U2	      0.0482096415874699     -0.0964882958056874       0.192550237396192
U1	      0.0564609099505199      0.0399108267923474        0.19763508219896
U2	       0.109648935439469       -0.24420390398702      0.0520589890108962
U1	       0.199661367167303      0.0417292166450293      -0.126744348767719
U2	        0.11033276204564      -0.242279615702728        0.19693514127122
U1	       -0.43259561589131      -0.122485903351284      0.0560255061938784
U2	      0.0559563796140508      -0.218954664242986      -0.088568585977456
U1	       -0.13115668886983    -0.00686837568428385      0.0457842340922458
U2	      -0.139104583480897      0.0376378496423172       0.127114599596093
U1	      -0.166629262376072      0.0734557409245981     -0.0740387966393398
U2	      -0.099114467368153      -0.174172057688926     -0.0812777857807357
U1	      0.0642828481337708       0.272306505159563       -0.12576242540104
U2	     -0.0346511141860179       0.237919935397642      0.0674286540119338
U1	      0.0790285401197117      -0.105400634990072     -0.0342450102523942
U2	        -0.1511136998124      0.0270522810310118      0.0611300393729771
U1	      -0.127825454892269      0.0582292516111858      -0.293076386001537
U2	      0.0460891291041149       0.174897012778762       -0.20050750624623
U1	      0.0693730923580131      0.0587303874113117      0.0585695824523048
U2	       0.167046770670855     -0.0555068671028023     -0.0359894279639075
U1	       0.197345621153012       0.102250228194482       -0.19796218393469
U2	      -0.105868135366502       0.148157803680246      -0.165571032615598
U1	       0.113119229414533      0.0460599017888836     -0.0643522805904379
U2	      0.0821445178535127      0.0214483442513803      -0.256150173133509
U1	     -0.0296795861310872      0.0601736700258444       0.328412853308671
U2	     -0.0903846214129271       0.133686971399323       0.205297431605095
U1	     -0.0989659444184727       0.395425554303899      -0.340804732745924
U2	      0.0978286440242142      -0.264036742980241       0.102364292228271
U1	       0.122554965520669       0.352848070488979      0.0949676428992059
U2	      -0.170678117398195     -0.0890764467606229       0.311349188831934
U1	      -0.209301914270608      0.0717315534449072       0.054739194494582
U2	       -0.16785297088248      0.0668803119515107        0.23810154108716
U1	      -0.201477154256678      -0.131436164216516      -0.181702504174467
U2	      -0.122274349043491      -0.112380502055101      -0.309037928920289
U1	     0.00123975199480217       0.167013179811928       0.028599611093205
U2	      0.0316114544323307       0.185034830947941       0.033047985414091
U1	      0.0148125098748898       0.310791258035067       0.101378857984896
U2	     0.00278623687886069       0.193321471539928      0.0859373926826136
U1	      -0.406975481888768      -0.107611492998253       0.231708068546951
U2	      0.0367628763211037      0.0561206987607219     0.00226658166845589
U1	     -0.0876640061236233      0.0853827063143324      0.0887399376824633
U2	      0.0995770686477827      -0.222783332561364      -0.207671931185026
U1	       -0.16392390014482      -0.426760901674455       -0.10101274551486
U2	      -0.168940101194865     -0.0125345433472309      0.0484577153262226
U1	      -0.154736279010913       0.063349059168909      0.0619062692452139
U2	      -0.100851020816962     -0.0616154961173824      -0.135066611097872
U1	      -0.313988321844541      -0.024808908894306       0.180256079312987
U2	     -0.0348470999398871       0.215357758814694      0.0805505729704888
U1	       0.120979899643017      0.0853632221115777      -0.233212713487423
U2	     -0.0271518969798949      -0.137413526216854       0.181644032340181
U1	       0.157918543266783       0.304297869260079      0.0760903552470626
U2	    -0.00364461139323005      0.0146058292608766       0.279826034315013
U1	      0.0986413968005849      0.0770339421149088        0.10040732562352
U2	       0.144556342059978     -0.0883654226001017       0.265965975394371
U1	       0.105236141719241    -0.00563574422926078     -0.0268411207803315
U2	      0.0903444287856023      0.0485519420027813     -0.0867324553254939
U1	     -0.0645407921646904      0.0901985860210228     -0.0268485349269253
U2	     -0.0972591363412147       0.176643647041243      0.0021629487478725
U1	      0.0409289336317609     -0.0568492074928566     -0.0517790299252675
U2	     -0.0871439357548265        0.14807912118607       0.188128525888196
U1	      0.0541369163482506      -0.300062937078773       0.124768638634409
U2	      0.0565552212580281      -0.276005933927778       -0.06486508240598
U1	     0.00543621775060764      -0.185960805267569      -0.208307372180435
U2	     -0.0777684007131889      -0.178888162749014      0.0383768246152612
U1	     -0.0522110391183662      0.0801964214531693       0.167089264034347
U2	       -0.21642027897021       0.159659286581756      -0.136973632029751
U1	       0.113346031108404       0.399519874234614     -0.0328448586085826
U2	      -0.202585127502856       0.186290387039266     -0.0588608586287728
U1	      -0.225467158957982      0.0884016134849547      0.0281255272623757
U2	      0.0553055263319014      0.0968102699252664       0.118866476538133
U1	       0.100336521850729      0.0252646558028085       0.193180655304719
U2	      0.0904704568065014      0.0950596031702825       0.142496732260797
U1	     -0.0663751622416972      0.0469434339375542      0.0489403077568576
U2	      -0.188324412674042       0.173566380108437      -0.122059921133415
U1	      -0.178491005232713       0.163655843489869      0.0206648121222817
U2	       0.145359435284234      -0.179057724341421      -0.144229231255428
U1	       0.179836396206154     -0.0447621351849007       -0.11076036650764
U2	     -0.0800559441180636      -0.128312813516525      -0.246528556008638
U1	    -0.00313816428785127    -0.00662857780529693     -0.0307389908179099
U2	      -0.116476692475618       0.276680805715687       0.269334617236709
U1	    -0.00467142097114229       0.281802188275409     -0.0748964932364622
U2	        0.27694428267867      -0.021056151330177    -0.00530235561559917
U1	      -0.155256054127872     -0.0603703156201288      -0.153258040032714
U2	      0.0292681778911476      -0.010038360344995     -0.0820461146390541
U1	       0.179522341523084       0.136978758865649     -0.0730286922807494
U2	       0.301001805036643      -0.113341342161673         0.0219307855098
U1	      0.0594038411192139     -0.0750804017957455       -0.08647139257509
U2	      -0.240706276111429     -0.0477300894923021       -0.10110915622375
U1	       0.189917361489673       0.139338300019625       0.169806136518182
U2	       0.266519832427875      -0.289068623583263      -0.206167815849609
U1	      0.0480972371815749      0.0382622693418286      0.0501926009305515
U2	     0.00998765919008969     -0.0372053181538568       0.107433292028152
U1	      0.0546969639025872     -0.0870932256784535      -0.147058658197311
U2	      -0.177183259171652      0.0841288623063418      0.0138991535604584
U1	      -0.115069895151882      -0.183252768060885      -0.153570508066548
U2	       0.028608196413789      -0.159012982353168      -0.155770326319666
U1	       0.145818888925669     -0.0882903723658196      -0.181118106130082
U2	       0.163531172863474     -0.0116413777483148     -0.0628389011425277
U1	      -0.145079356848871      -0.042263356686257     -0.0273360995431305
U2	      -0.102376754238327     -0.0240056185623098     -0.0187164411921457
U1	      -0.274345298014622      -0.149552390883637       0.328401034461614
U2	     -0.0430525214679508      0.0108761798854013       0.219463714193541
U1	      -0.130618791803661       0.262142721773715      0.0734098722434816
U2	    -0.00191222415251453      0.0586258852815089      -0.113392542768454
U1	       0.129480836479247     -0.0482994431471593      -0.101728394050685
U2	      0.0824327430267653       0.108333552121555      0.0840264408127974
U1	       -0.16639973163925     0.00674910469645098      -0.370289997773811
U2	      -0.034287179008157   -0.000411890005480581       0.318475363602177
U1	       0.086536619238355       0.115015655704524       0.109824553255284
U2	       0.110633260855571       0.029967110254518     -0.0688873293233169
U1	      -0.281437269570043      0.0481108154663749      -0.120135614282043
U2	      -0.304233672616213      0.0269158002524735       -0.11244185597652
U1	      -0.174493056440151       0.246141468989922      0.0412406174410848
U2	     0.00638080156790114      0.0861410751201784      -0.218102001847423
U1	      -0.222088635584156       -0.19623789657474      0.0120234476489484
U2	      -0.249988437487804      -0.187733502792027       0.153811430211631
U1	      -0.135891108254714      0.0390575430874402     -0.0942673466202464
U2	     -0.0868912159953056       0.126090295972934      0.0488830816925737
U1	      0.0849539181086254       0.103142622809005      -0.112809785039237
U2	     -0.0893950994143495     -0.0346671098513297   -0.000463412466539274
U1	        0.28003496434187      -0.223431449016311      0.0902258143841252
U2	       0.213183290900336     -0.0558324351501587      -0.212387972215139
U1	      -0.229072961026395       0.469296217617523       0.127390835664703
U2	      -0.230072934824867       0.345190222778353       0.294635584192078
U1	      0.0983065694627854       0.198066473584264       0.165819563630728
U2	        0.14805385991864      0.0554266617831293       0.303101369752667
U1	       0.031372353811422      -0.126589509942837       0.086071066212159
U2	     -0.0594642794426279     -0.0516962447138096       0.147655421635388
U1	      0.0609077282704456      -0.171993061247615     -0.0312339472008721
U2	       0.106105019121173       -0.12313979492554     -0.0490474464070969
U1	       0.169871247374817      -0.168835569108974       0.196419543125924
U2	      -0.261791209775306     -0.0403052333674855     -0.0276640024488439
U1	     -0.0100068744551013      0.0866622179012338       0.216558607295049
U2	     -0.0411208721842725      0.0724827632961872      0.0172652451488554
U1	      -0.207602388691366      -0.137184663442799       0.118951615257706
U2	     -0.0926729089025091        0.20065875607115       0.107508191493056
U1	      -0.223751449751469      -0.199284887700666       0.133726383135161
U2	      -0.154330935764997     -0.0930631920035382      0.0319825851746086
U1	       0.071219460508772     -0.0625958179908015      -0.104481368829213
U2	      0.0726720130848292     -0.0770925174357086     -0.0951330125620302
U1	     -0.0261812586307268      0.0257599219995469      -0.185595879577325
U2	      0.0327565927495206     -0.0566470511657314      0.0762444521474231
U1	     -0.0648784105074149     -0.0148820534889348      0.0492937873232531
U2	      0.0205613127284783     -0.0661026825802172       0.083218788774469
U1	     -0.0206532461234468     -0.0112114909870468      0.0219502135072203
U2	      0.0870895369883682       0.118929033917871       -0.04819375472067
U1	      0.0806539507154356     -0.0386279208249457       0.015271133159045
U2	      0.0581144885104502      0.0194570731161415     -0.0818455508132327
U1	      0.0272804015015867      0.0623309423472692       0.159331044662312
U2	      0.0851082678601792      0.0447126871599728         0.2318720859829
U1	      -0.049568151751243      0.0493614980290307    -0.00742932363500039
U2	     -0.0264116002951545       0.206947865869558       0.209715647557725
U1	       0.113351138433766       0.331011548370438       0.176219176875816
U2	      -0.141090417038472       0.292323098570716     -0.0469121064878259
U1	      0.0781013993754104       0.185735078340984      0.0981553074398942
U2	      0.0977496710405607      0.0418821146938341       0.120113666567224
U1	        0.37230349136977      0.0840625011373294       0.297386146594909
U2	       0.222445802436962      0.0128222476130192       0.295582164969051
U1	     -0.0815520880962693       0.099120052190262     -0.0241211228046456
U2	     -0.0921422819808996       0.116888501309937       0.156871367129855
U1	     -0.0240866317706537     -0.0867090408203519     0.00318550972969763
U2	      0.0111928190226941      -0.106220017292603      0.0405800637983379
U1	      -0.188186414296955      -0.173105186810018       0.234817213183663
U2	      0.0912612279685884    -0.00826328857617894       0.167756853813773
U1	      0.0336714134876086      0.0524921564883403       -0.14132873942472
U2	       0.135248072732539      -0.064462497257545       0.382971444180422
U1	    0.000117999769645845     -0.0206332668807903     -0.0992450957891682
U2	      -0.295897983767353     -0.0621014306061019       0.081626222427351
U1	      -0.177001809622199      -0.024881001561571       -0.16820898162726
U2	       0.112087014993546      -0.044505644329456      -0.239444585897388
U1	      -0.141838930102405      0.0943739965183397      -0.190945158176121
U2	      0.0584375534309022       0.166418628498116     -0.0431539341090607
U1	      0.0509326212738195       0.104842103246151       0.246523421234738
U2	        0.05751907893289      -0.209697551204767      0.0674819105079137
U1	       0.210496324923246       0.209489188138569      -0.173932817816153
U2	       0.247444017329849     -0.0843086121807613     -0.0530634212826175
U1	       0.102633887450583    -0.00329789539682502      -0.229294614510317
U2	        0.21921806455089       0.107850304669808       0.103885147632605
U1	      0.0890852083633499      -0.119416570032521      -0.120510874172318
U2	    -0.00773737516162798      -0.100810733479828     -0.0540715890273715
U1	      0.0968763783565808       0.155594077218908      0.0695802589904181
U2	     -0.0860117990262081       0.211934619392979      0.0948141848058145
U1	      0.0399853564158217       0.122954062012043     -0.0542644692879313
U2	     -0.0326606834386369      -0.139619491835273      0.0392767551899481
U1	      0.0258895516190527    -0.00246305514153911       0.152863597713423
U2	      0.0671041810259328      -0.148149733170498     -0.0667635043443197
U1	      0.0620736501950018       0.159971797223897      -0.123540181811483
U2	       0.270026341120378       0.100873544052584     -0.0803699325908801
U1	      0.0466543427799434     -0.0958417533726092     -0.0396375366946459
U2	      0.0448824394181934     -0.0117294615533518      -0.136123714019856
U1	      -0.167555732075248      -0.114778313839571       0.188787786440186
U2	      -0.157680362475723     -0.0778324164774369       0.153912512491356
U1	      0.0414046722388958      -0.118829579432069      0.0980849053691989
U2	      0.0759586687001869      -0.153058431522853        0.15437827169905
U1	       0.116994060734943       0.417787025829948      -0.084042018493509
U2	       0.194956857659051       0.108305021580544       0.118421528400854
U1	        0.04017767573339      -0.206406695544838     -0.0358837601301816
U2	     -0.0390163965691335     -0.0980628678141067      0.0896379292174015
U1	      0.0348467324379177     0.00281078057828434     -0.0230241680226371
U2	       0.100292390435114      0.0687103050356437      -0.121685436728747
U1	      0.0225550545020876     -0.0845191637436937      -0.143092467564419
U2	      -0.092605624096675      -0.315355897766932      -0.015599211487066
U1	      -0.162210891961224    -0.00521186025434776     -0.0907242458640632
U2	      -0.101611536089639     -0.0088023484247969     -0.0334754806146167
U1	     -0.0545878412972173     -0.0939764129559061     0.00856473056068181
U2	     -0.0540475460967145    -0.00592723847450061      -0.221222492977645
U1	      -0.185779862341106    -0.00895751544773396     -0.0552284519715225
U2	      -0.168102165832095        0.11379030077147     -0.0128820642648094
U1	       0.121621348817979     -0.0489646751007674      -0.230691241632457
U2	      0.0281941787570248      0.0189855585000821       0.119336676986479
U1	     -0.0175644618624779           0.20102354272      0.0277284288536214
U2	      -0.190584819126602       0.167662340026805       -0.14178367187855
U1	      -0.052579657874461      -0.122135474797733     -0.0771372776952642
U2	     -0.0753920323942105       0.129167674397364      -0.176467004109087
U1	      0.0190024818651208      -0.015243320572096       0.300299517220895
U2	       0.020741895076294       0.159104066440604     -0.0560094491470928
U1	     -0.0839024395359564      0.0562178198050328       0.155746579667268
U2	       0.193507947508626      0.0131531060022983     0.00735570773904183
U1	      -0.100388046736924     -0.0614156793306688      0.0142651956653081
U2	      -0.108282759216257      0.0840569205030175       0.206734094266103
U1	      -0.035910002550927       0.171922071130666       0.154288515485945
U2	       0.195200583218133      -0.191462883163427      0.0529029445217779
U1	      -0.123039448289218       -0.14992434746568      0.0473550477912016
U2	       0.113980042318017       0.177782566247027      0.0494488962391387
U1	       0.154164226098416       0.126035811684865       0.321525657679357
U2	      0.0249532432859722      0.0661461155966421      -0.232780090775166
U1	      0.0757516933665325      -0.112890670282174      -0.109252852512786
U2	       0.159887264861057      -0.138778300681661      -0.118600673661452
U1	     -0.0288339438634336       -0.11166157328739     -0.0661806306785711
U2	      0.0105533316945879    -0.00179292134406179      0.0608712812977376
U1	     -0.0424598700314028     -0.0302192583636537     -0.0872679059564128
U2	       0.055989041726734     -0.0589247838358818       0.148003075570239
U1	       0.216216904093816     -0.0728190278351009      -0.166198122315423
U2	       0.246695686950367       0.176401610364926     -0.0674369116166636
U1	       0.323530212409079       -0.27896534493605       0.125957866689123
U2	      -0.195627494706847      0.0747666188883127      -0.101219183077783
U1	      -0.146647698279301      -0.195616768820518        0.11547346059282
U2	       0.129813862681344      -0.169429566127963     -0.0249934667120668
U1	      0.0140370850033368     -0.0890434363036189       0.209075666663991
U2	     -0.0336381671142402      -0.145076999368129     -0.0453227819191212
U1	     -0.0949976228558751     0.00311099532989002     -0.0568958240851901
U2	     -0.0176846871590205       0.110070850743778      -0.134532285103934
U1	       0.191329806483995    -0.00998817780335418    0.000513039333636122
U2	       0.337235672501667       0.017936708378831      -0.101501579849926
U1	     -0.0758468889147266      0.0599907958070143      -0.234106713912618
U2	      -0.105241448004034       0.113876258564988      0.0324961622540093
U1	      0.0158985942249531        0.17351970915324      0.0185933863327811
U2	     -0.0114475694906693       0.162048138592525     -0.0346405807004122
U1	      0.0878213783556456     -0.0181787852076136      0.0934037709114922
U2	       0.055300807815007     -0.0796947388243237       0.200897446583919
U1	       -0.26923234769364     -0.0683533364618701      0.0988567424001009
U2	       0.110997405214793       -0.31270378273204       0.119515962528571
U1	      0.0661729055052646        0.17932659306356      0.0574113210397542
U2	      0.0660563447629132     -0.0751070606754471      -0.244226294295798
U1	       0.187757955154126       0.106822324391884      -0.113865450720958
U2	     -0.0911459224355014      0.0888061221631485      -0.107444310539241
U1	      -0.118125322508471      -0.118839649668636      0.0752201923163658
U2	     -0.0627815031848186      -0.147846014889487     -0.0353457534273603
U1	       0.290925385747152      -0.033556556100517     -0.0100069564017483
U2	       0.143940813077605       0.223169008708441       0.129351598571637
U1	       0.214206784457831     0.00729672272978945      -0.063121777285127
U2	      -0.343524334600264       0.152117153234796      0.0834931421597758
U1	      0.0539172408007903      -0.120615004203201     -0.0194527579488668
U2	     -0.0936023418633296     -0.0951578707734962     -0.0613926194006226
U1	       0.124056743135002      -0.194366190434878       0.200955746959387
U2	     -0.0331845726341571      -0.309558916010851       0.425759276506327
U1	      -0.201310475802733        0.18482585176232     -0.0706785559743184
U2	       0.184290406262131     0.00720312214323519        0.35880709337209
U1	       0.144517358230974      -0.167134915473284    -0.00498826529108887
U2	     -0.0320363181542277        -0.1179025796598       0.116345101031134
U1	      -0.257222984008092       0.239856212628458       0.129763285980609
U2	     -0.0614088727443839       0.282013539127978      0.0321878815499862
U1	      0.0466668034682294      -0.052190097851449       0.202962117448349
U2	      0.0331178942066811      0.0710881920957651         0.2087567266571
U1	        0.13917766739988      0.0395894543768473       0.146013076069288
U2	     -0.0487653366111093       0.181776036191941       0.128924691207551
U1	     -0.0931561702139722      0.0136412522256168      -0.287616515309568
U2	      -0.144531450454448      0.0576921581150797       0.202767448857902
U1	     -0.0247028524464048     -0.0197640075693941       0.175848130845774
U2	      -0.245333177468584       -0.21115384858262      -0.163757569122716
U1	       -0.18673477124544      -0.128656729513911      0.0425361131307892
U2	     -0.0214958466796365      -0.178799054848175       0.283753953263357
U1	     0.00711190689533573      -0.161164586113918      -0.111673605624245
U2	      0.0382786792010455     -0.0293978147054698       0.106543052927317
U1	      -0.361471695694695       0.287138505744203     -0.0978072576059495
U2	     -0.0453391155255078        0.25768964546937      -0.147449340934564
U1	     -0.0555083367143025      -0.145180036359776     -0.0376925315326149
U2	     -0.0136126152440038        0.12527988545341      -0.201511854928569
U1	     0.00768759287827446      -0.179441153683243     -0.0128125634975091
U2	     -0.0780532186542569        0.15491174533999      -0.111421128975429
U1	     -0.0487525571449327      -0.272630712259204     -0.0799409163546264
U2	     -0.0196495353185664      -0.187030771119033      -0.167219847414419
U1	     -0.0133760540383988       0.121835318067252       0.209174733767995
U2	    -0.00601660071952036       0.101142115265419       0.195425149585587
U1	     -0.0283485011715472       0.250100833802065     -0.0887659036092904
U2	    4.35503450164773e-05      -0.152444649194672       0.123677204009615
U1	      -0.157447669345177      0.0105761580210116      -0.041173985068574
U2	      -0.170631416757967      -0.226440692601848     -0.0219489549349175
U1	     -0.0174413691695255       0.044638769505233      -0.140603564321389
U2	     -0.0311245342392231      0.0356145476060827      -0.168394212315253
U1	      0.0243738094562183       0.115547714158251       0.137602134789153
U2	       0.313015714810855      0.0621255975593199      0.0335205206483411
U1	       0.115514718121049      0.0417497037601863      -0.230761910902724
U2	       0.064438762860536     -0.0553214348644693      0.0439016987271155
U1	     -0.0889597902657289      -0.149893466254923      -0.124405412690074
U2	      0.0941263513797999      0.0222762109808154      0.0420209441197371
U1	       0.137482129265382       0.206925735501576      -0.361363668429691
U2	     -0.0943636483019815     -0.0204470486291885      -0.240836373116867
U1	      -0.404361844033225       0.207053885174992       0.212677685299762
U2	      0.0501590805200299      -0.147074810751789     -0.0670898719938978
U1	       0.149148695120834      0.0925920888584956      0.0297827078921999
U2	      0.0334186012105105      0.0429465905775415      0.0180247388300453
U1	       0.158996640650468       0.116572011596594      -0.235101141814851
U2	     0.00104385129547717     -0.0615408376136442       0.117901842266566
U1	     -0.0422442335528743     -0.0555462821217474     -0.0859615279663085
U2	      0.0286687350301558       0.157819808128009      0.0912481842026389
U1	      0.0179749298071173      0.0684071977617226       0.175498911137045
U2	     -0.0808337760438711      -0.175292549617889        0.06635467338001
U1	      0.0053716387631366     -0.0565027245040481     -0.0672081559653134
U2	      -0.189547151053041      -0.123192495474066      -0.105097503669612
U1	      0.0997018003928898      -0.226290523427901     -0.0955722621826334
U2	      -0.317710060418201      -0.104730121747531      -0.152104281438299
U1	    -0.00995750516524852      0.0843269065745385     -0.0575326079815954
U2	      0.0630374483151065       0.151374047623629      -0.125735999091188
U1	     -0.0542642707292666      -0.177471023931009     0.00953652554784799
U2	     -0.0941217528154196     -0.0131793059382642      0.0507314395065493
U1	       0.273349516820309      -0.185907059296258      -0.298635174563279
U2	       -0.35163210965662     -0.0839912666326713       0.015852007637441
U1	     -0.0350151850125496     -0.0745938923114757      0.0808415445555388
U2	     -0.0989364826783823       -0.20561573837273       0.123556159559776
U1	      0.0159041409863681     -0.0641002233761451      -0.044239497401617
U2	       0.259838749137459      -0.180850669458557       -0.31568217799185
U1	      -0.219956813216486     -0.0135042291444202      0.0902175280833256
U2	      0.0878787685128556      0.0382246786440612      -0.036122345332867
U1	     0.00238336259517919     -0.0136091968428432      0.0457908947456192
U2	      0.0475344555436373      0.0657035528894272       -0.10778022892089
U1	       0.215390443515313     -0.0269264434268922      0.0253515113571376
U2	       0.110013208904616     -0.0641320263842552      0.0692546389902865
U1	       -0.20860948771067       0.223589288156143         0.2714862970749
U2	       0.302868812656121      0.0609092803958964       0.204237270350487
U1	     -0.0173940934392761        0.18524112469704      0.0880915711512955
U2	       0.156037630043013       0.115765761029116      0.0856703738584812
U1	       0.357244489304512      0.0218245989859169      0.0226136456969265
U2	      -0.082047424094776     -0.0258325113468424      -0.131311409355201
U1	     -0.0897070578033474      -0.292167337930049      -0.259840943339367