200
!ProtoMol (built on Mar 15 2005 at 18:54:16) generated this XYZ file by tmorrow. Time : 100000, step : 100000.
U1	          6996.370388385         1269.4259037789         12622.926094231
U2	         6996.0367209541        1270.40916934698        12620.8234522337
U1	        3637.51862290705        663.781007957788        16952.5625741946
U2	        3636.88482680105        661.580882462879        16953.0692954982
U1	        2440.31754481763       -3010.45413010657        15013.4522566207
U2	         2438.8565313206       -3008.91592667673        15014.4514717798
U1	        4269.49910629851        1239.82079148533        22359.2291186518
U2	        4270.87835827527        1237.92437752158        22359.2080345844
U1	        12722.6353616677       -5815.71261131425        20311.3437306123
U2	        12724.0634453693       -5816.57976379815        20312.9892274631
U1	       -660.210084673874       -1947.18948504098        19972.8524684271
U2	       -660.037266723001       -1944.92832458405        19972.2555037593
U1	        12110.7827761252       -3435.17799887196        18799.3893954624
U2	        12109.1699190854       -3435.11276815808         18801.090464594
U1	        7241.19065953066        3114.61995409253         17893.229824642
U2	         7240.3222211732        3112.77644900456        17894.3901504076
U1	        1154.71980459426        89.1974330055441        14378.7117328752
U2	        1156.46909234356        89.4112316080206        14380.2587926974
U1	        9454.19375918676       -2186.81902174007        24559.3423035538
U2	        9454.17923205853       -2187.00691034724        24561.6797208815
U1	        3883.81788443629       -14320.1163479948        21652.7320564278
U2	        3881.57574794568       -14319.7256396505        21652.1669221696
U1	        9032.83487603996       -4939.96264971723        21890.8600644667
U2	        9032.08009028714         -4939.599082042        21888.6698104065
U1	        2925.56936879727       -5765.10564535505        16893.6494719209
U2	        2925.67310522756       -5762.94845181464        16894.5631391473
U1	        9268.82180857436       -147.428983183056        23623.5913358007
U2	         9269.4658950868       -146.232816423968        23625.5027609079
U1	        6259.98155295941         6016.9688006489        11557.3356595589
U2	        6259.69306923198        6014.64263522728        11557.2643742712
U1	        4039.85239849474        3656.12950485906        18393.9783533513
U2	        4040.86599041377        3657.52168203746        18395.5700546962
U1	        9279.07897864208         9.6801420707882         15693.855324658
U2	         9278.0829731317        9.52933541541635        15691.7377137311
U1	        1047.27363093583       -2188.87525206491        15850.7295908429
U2	        1046.56487327027       -2191.04498190481        15851.2672395115
U1	        13572.4750789637       -1064.12197549768        14014.9537546177
U2	        13572.2879782186       -1061.79034110451        14014.7876514117
U1	        7780.41983815379       -5020.59095131467          19199.98084363
U2	        7782.56376329054       -5020.69670743559        19200.9249971043
U1	        545.881288487854       -6030.42780929898        25038.8533568138
U2	        547.715990866963       -6031.05150114985        25037.5327778253
U1	        6784.47454790419       -7010.15118349896        14309.0315922126
U2	        6784.49270462319       -7010.55100283692        14311.3421897467
U1	        1447.23274483336       -14915.4423646892        20553.6982284202
U2	        1444.88834624689       -14915.4950502874        20553.7072777089
U1	        6822.01631230843        890.643130917881        14432.6347841043
U2	        6823.61132538524        888.926015885132        14432.7154156971
U1	        3819.00947749454       -6364.37693305165        20494.4409546773
U2	        3821.02750595496       -6363.32914635333        20493.8674350613
U1	        9874.02171446519        2553.77194574752        20159.9621168213
U2	        9872.85776274108        2553.17015523003        20158.0173435715
U1	        10439.3403212379        1933.13500744921        22001.3546469654
U2	         10437.945455838        1931.32705828182        22001.8882624679
U1	        10642.0648962178        1942.39416376657        18957.9962968139
U2	        10642.3786908598        1940.08876125226        18958.2891705771
U1	        5704.91438794277       -6181.96397507333        16350.7944493277
U2	        5702.69963811348       -6182.31160168323        16350.1066368938
U1	        5570.31931791626       -1073.00346304343        18225.8846763152
U2	        5569.89475367454       -1070.69725607798        18225.8703848882
U1	       -2018.05123179931       -3702.72406840495        16877.5709943533
U2	       -2019.15059573537       -3703.16012361423        16879.5959575031
U1	        4821.35562581637       -771.432462897023        10645.0870556529
U2	        4822.00517535418       -772.923219352069        10646.7766828732
U1	        9242.30832847289        4029.93849688097        15219.2085732293
U2	         9241.1468989586        4031.97330360988        15219.1097707715
U1	        4342.96551772913       -3083.23017884032        18706.5164942818
U2	        4341.85828213883       -3085.09262489927        18705.6196502962
U1	        4054.39184393811       -5134.54675360546         14297.042468352
U2	        4056.56472170747       -5135.42112309651        14296.9278194659
U1	        6845.95995223603        5323.97508089088        16976.8431403047
U2	          6846.156443571        5321.65515683166        16976.5631890502
U1	        9805.05107993429       -3272.87114241472         23377.195684335
U2	        9805.56353426635       -3274.99365266544        23378.0509368318
U1	        1221.02454294847        10.3031061613725        18532.7319691894
U2	        1222.63269220686        12.0084349528191        18532.8016597725
U1	        3902.25681063774       -5694.69559127809        21463.7614538928
U2	        3904.53661398672       -5694.15021921967        21463.8262671635
U1	        8974.78541675771       -3738.01619048435        21499.1921333406
U2	        8974.63682578683       -3739.74029592351        21497.6095841013
U1	        10936.2143359738        2493.53156275368        11057.6161562288
U2	        10937.1623841901        2491.38670178745        11057.6242806058
U1	        6314.27760892733        1068.69941675074        13903.7196148269
U2	        6315.05304933262        1066.66222291485        13902.8549807245
U1	        6796.13381312503        749.812202803045        13067.1557760585
U2	        6795.76455185751        751.733429252359        13068.4486984166
U1	        9041.03892608064         8.7830352906881        16938.4215264471
U2	        9039.38192645315        7.37548925778305        16939.3004250541
U1	        5171.79470371772       -2809.50072006065        8168.96519962981
U2	        5169.50274192377       -2809.01190214177        8169.04883091082
U1	        11992.2097493667       -2384.61769428498        18499.1263005788
U2	         11991.270975863       -2382.47359923185        18499.2698683479
U1	        13746.9992790008       -3651.88605734741        20598.4697027322
U2	        13746.6012194206       -3653.85129235282        20597.2537328165
U1	        3881.25174802429        -2079.4300040863        21313.5163521827
U2	        3882.81410228919       -2079.31047459214        21315.2610395498
U1	        6816.78048250375       -3478.56150790623        11079.7955561711
U2	        6816.57380067422       -3480.26045416688        11078.1924520846
U1	        7440.90495035313        8023.00540265745        10075.8078025708
U2	        7441.33174190898        8023.52341971553        10078.0547228696
U1	        7441.85093351448       -4505.61683184742        16673.5693208507
U2	        7442.13127706165       -4505.62191321896        16675.8975104856
U1	        8165.83193375003       -2154.88815162781        16374.3281623126
U2	         8166.5201525718       -2153.54506954637        16372.5331537352
U1	        5682.50263088842        3833.25821696312         10866.715355407
U2	        5680.72769659964        3832.43792387008        10865.4208457351
U1	        4999.32754313712       -4125.91154893641         21451.837131627
U2	        4998.53740677826       -4125.92708198396         21449.629291995
U1	        14270.7998095515       -1309.95749801253        16850.6430254001
U2	        14271.9194167303       -1309.69272666159        16852.6864055227
U1	        587.799292133337       -13570.7672497066        14905.0912619032
U2	        587.011102616915       -13572.6970266687         14906.165435153
U1	        11056.0780854971       -1282.25638666482        9255.70780520326
U2	        11056.5836342309       -1284.54625478108        9255.70664283706
U1	        11946.1823787942       -3856.05548789826        18619.3663727535
U2	        11944.6152745005       -3854.31290560929        18619.2848537437
U1	        5941.71709038693       -4776.09247155023        23244.3124401745
U2	        5943.56750539757       -4775.45213102309        23245.6027819974
U1	        13096.2336202805        67.0531300202613        21130.0717722597
U2	        13095.8820972439        65.5353357555459        21131.8244951975
U1	        7005.39103997119        660.421113920697        19634.5346573572
U2	        7004.84405010482        660.728847973034        19636.7941245086
U1	        10464.5118561135        -7696.6588020091         20541.378647836
U2	        10464.5614231881       -7696.86216126753        20539.0430064751
U1	        2641.20389920304         1995.1648921031         13712.322357378
U2	        2640.93698621671        1992.96178187424         13711.564669076
U1	        6637.69212998477        8005.75412942389        25164.4959553872
U2	        6638.79354298892        8003.72194336611        25164.8910948067
U1	        4083.47841009855       -3204.22720873329        19320.0454994545
U2	         4083.8881421424       -3206.44641880382         19319.407970396
U1	        4931.94822096487        -93.811503575471        16474.0948619088
U2	        4932.00256907966       -91.4684355641644        16474.0153014162
U1	        4708.00697462785       -7629.23624674548        12634.6701558542
U2	        4708.08422353581       -7627.07000080147        12633.7754818847
U1	        2188.65363664699        1902.19900113354        11854.1967171352
U2	        2190.14006861251        1902.76988685144        11852.4751891568
U1	        19298.2350902382       -2326.58496244884        12268.1058457504
U2	        19298.0076178602       -2324.66470080145        12269.4324543968
U1	        3657.58891485771       -3043.15088007801        19474.7338191603
U2	        3658.70570460962       -3041.10326899881        19474.9772743281
U1	        5572.07594979326       -859.459604646288        17685.5238181483
U2	        5572.42790912622       -860.910070072736         17683.715096441
U1	        3424.07894118037        2699.43039609773        14149.0819200108
U2	        3424.55126893316        2698.15832501071        14150.9944579536
U1	        5555.11174618417       -2981.40948097111         18463.917956249
U2	        5556.54557071946       -2980.62842811002        18465.6011780364
U1	        2157.64961599507         -4165.541738786        14416.9819846288
U2	        2158.35137619659       -4167.29558374016        14418.3715062362
U1	        13945.1118541663       -8115.70276145594        16145.9250671556
U2	        13942.8236497236       -8116.01929125984         16146.328746175
U1	        8422.66873517124       -1744.38154771403        12327.6272112654
U2	        8424.60929824424       -1745.57819409112        12327.0781668633
U1	        6049.56859418573       -1199.07685011385        10597.1000905919
U2	         6051.1817324611       -1200.77553105845        10596.9937787218
U1	         3658.1409201442       -8338.07875418539        16749.9641385283
U2	        3660.09933134602       -8337.59687297175        16751.1606386378
U1	        2540.53127057976        -7715.2756340964        19305.1073305531
U2	        2538.96289173249       -7716.84769817653        19304.3537800407
U1	        1277.37245114405       -2088.12904386464        21876.5972741241
U2	        1279.57263466943       -2088.01681491509        21875.7937648857
U1	        4023.43416801274        504.027866688626        16642.1581947535
U2	        4022.48798687677        506.089802855157        16641.5647293803
U1	        9094.28452414273       -5465.11527194776        21284.7611886945
U2	        9096.35031932421       -5464.33950698964        21285.5547483646
U1	        10485.3181445485        2436.16332403374        19240.2168652452
U2	         10487.227336811        2434.98640479935        19239.5319991527
U1	        5554.99032276209       -6030.92428767115        25363.7668425563
U2	        5553.35059379056       -6029.99340631139        25365.1610516548
U1	        2683.52472415402       -2449.98839747583        15220.8702753579
U2	        2681.46713936298       -2450.63306376704        15219.9484259728
U1	        5627.74498915293       -990.180157609005        17158.4950011599
U2	        5626.31453506935       -992.028615541137        17158.6850669707
U1	        306.584718372009        751.750859746026        18399.2418294157
U2	        308.703351801732        752.352623226506        18398.4366161002
U1	        8192.59578388745        935.321296145425        16803.4104799814
U2	        8193.99411663391        934.668611399121        16801.6447693396
U1	        17956.8217585388       -5127.16087408155        15625.4670345837
U2	        17957.2244713908       -5127.58709449094        15627.7375444902
U1	        3602.68156099592       -9322.33145209514         13418.877119175
U2	         3602.0455409377       -9324.53378822912        13419.3713133471
U1	        4155.32270762196       -8244.59862777282        16244.0072537142
U2	        4153.20962332621       -8244.47691551575        16245.0167862091
U1	        4071.58985017136       -3181.97872793076        16104.8907550141
U2	        4070.69343754629       -3179.86187645184         16105.353799723
U1	        7189.56170644678       -5081.41958134193        19777.5003623149
U2	        7187.31317698837       -5081.78648303536        19776.9448563378
U1	        6531.07592227447       -1651.52000357389        15090.6212689043
U2	        6531.48843474228       -1649.24989276228        15091.0402188937
U1	        5361.34888261277        -1780.7012670356        10811.0879091699
U2	        5361.79501933746       -1778.51569650835         10810.364530162
U1	        12861.6879992009       -5363.14164751389        17461.2842344856
U2	          12862.02364239       -5363.31796223735        17458.9700844542
U1	        806.295447340121       -3434.86137648277        16497.8419043293
U2	        807.188965639872       -3435.68892551717        16499.8458727152
U1	        8840.51062825091         1734.4387840117        16429.3967491928
U2	        8838.64890835864        1735.78025824093        16428.9135024567
U1	        702.366962152647       -1767.57048275224        15418.2655262986
U2	         701.28540291168       -1765.51937528342        15418.6150564427
U1	        6584.96991488923       -3572.64912993798        14440.1416422673
U2	          6584.764317027       -3570.58663553782        14441.2384450425
