600
!ProtoMol (built on Mar 14 2005 at 12:49:52) generated this XYZ file by tmorrow. Time : 150000, step : 150000.
U1	        25.3576739337511        -39.892245436418       0.706612479303533
U2	        27.6814915277278       -39.7768295957188       0.999028400000902
U1	       -30.9925889404033       -1.75288706228393        -8.7614874751814
U2	       -31.4551014974683       -3.99001005899551       -8.23203490778521
U1	       -36.4819890327708        2.79435511330414        32.5589611227816
U2	       -36.1660602332924        4.77694760473327        33.7706750450682
U1	        35.6563155845595        4.39356074799402       -27.5974611813177
U2	        33.6088664210266        5.40398999950087       -27.0626962799057
U1	        2.06203963012283       -28.8216930692148        35.0936471211086
U2	        4.14984167606948       -28.7704310715078        36.1602166441325
U1	       -17.3315576595206        42.5916488563558        -6.2275796355808
U2	       -15.3741661839024        42.2666994701188       -7.47735742816679
U1	       -55.2161592550916        22.9505066816601       -22.6299425165998
U2	       -56.3439779970108        21.0294732176399       -23.3625193504718
U1	       -14.9118006849865       -18.5436811616112       -33.2523891640668
U2	        -14.979507079829       -20.8728538852387       -33.5157880790946
U1	        25.2127786271898        4.74985816386951        14.5502441040098
U2	        24.5838642324139        6.95878370586843        14.0766839292464
U1	       -35.0334809599934       0.994477311752337        28.8473724983134
U2	       -35.1015796986281      -0.348606703390057        26.9262796243627
U1	        3.26391997905095        -5.4183485078002        34.2555821581054
U2	        5.32497326563968       -6.44730672264616        34.6941520423285
U1	       -19.5575070652365        5.42835017496532       -26.7717851492328
U2	       -20.7654675103776        6.95091018766579       -25.4596687620942
U1	        38.5536690218122        9.80312660767625       -2.13802528247948
U2	        36.5562731960545        10.3966750672895       -1.06235620775748
U1	        3.10661338794312        19.4446678452234        16.9630951665506
U2	        1.73532390229014        20.9664309056565        18.1044696504492
U1	       0.669792424032201        10.9486244655601       -31.2502295364171
U2	        1.50432593712255         10.850995513511       -33.4394960521526
U1	       -8.76327215963417       -4.01880091203544        59.2972619194076
U2	       -10.9803750438719       -3.25531354194948        59.3187608160106
U1	        7.57014434574957       -25.4218282004849       -36.7239930515624
U2	        7.55258252707477        -25.451163526628       -34.3792665923468
U1	        1.65650157668361        11.2897362842184        10.9452099275554
U2	        1.07697857258044        9.16851723476818        10.1305712650658
U1	       -9.37408195885575        18.1003107328312        11.7156285643926
U2	       -11.4467981741918        17.0306141731003        11.9577808614728
U1	       -5.30466406901588        26.4061135061868       -1.78379321275511
U2	       -4.61890952491193        24.1702802149235       -1.61060924050241
U1	       -10.4907897553122       -27.4364870837881       -7.16817974602307
U2	       -10.8549030024931       -28.2537100509495       -9.33579961920677
U1	        34.7851326292963       -17.0480912392926       -17.8244454314207
U2	        35.5546904431066       -18.1951038882528       -15.9293791655761
U1	        12.0930191474191        11.5633582220196       -11.8595345397604
U2	         13.770319351258        11.2288090788087       -13.4638279823914
U1	         12.463613459407       -12.8423902719851       -8.58150701212373
U2	        12.4017330193708       -10.4982572921113       -8.58040540937249
U1	       -28.9883191252148        16.3229152576448       -10.8278393438044
U2	        -27.443350360354        15.4519860132142        -12.361953374176
U1	        12.7321608266506        10.4618291697953        43.5294726521467
U2	        11.2664955267039        11.0717920549053         41.803534836961
U1	       -10.7306728716368       -31.9644329902751       -15.5825225232262
U2	       -12.6297771089824       -30.7138610168847       -15.0093346656811
U1	        1.51790847005423        19.7563732134743        9.40673573587236
U2	       0.849027190516681        19.7375741586416        7.15927349541284
U1	       -7.15262162485193         23.197261509721        33.3100173193105
U2	       -6.67852269170407        25.2310899235675        32.2433808082239
U1	        -35.840555450914       -40.5520766398849        11.7967980203106
U2	       -37.1049791599085       -40.8396986744951        9.84292076253464
U1	        37.0400266188776        28.7372186156988       -69.5479709469352
U2	        36.7866110831916        26.4678754573175       -70.0816722451603
U1	       -10.3425945458201        20.7214003233101        56.0941181301504
U2	       -9.98676434473445        22.4508489101771        54.5509582628282
U1	        13.9768396864176       -3.53097931695466       -30.0959381093102
U2	        12.4547677335352       -2.23338199352296       -28.8717390461278
U1	       -9.07577163338982         37.348297028056        65.2440441822273
U2	       -8.32232807555684        39.1106956463346        63.8931419757142
U1	       -31.3040991232415        39.4191782896454        2.52895132435492
U2	       -31.6539223299658        38.6526922463985       0.340585370914124
U1	        22.6322381517316       -23.6903386230459       -3.44233401238894
U2	        24.8910130198615       -24.2479726716329       -3.73556276899431
U1	      -0.580664694110321       -2.99608766967825        10.5468795000326
U2	       -1.15946607790251       -1.18198428136471        11.9154886084651
U1	        28.5306047805686        17.3972799807063         18.214266590772
U2	        26.7353451604781        16.2240573394221        17.2656472232789
U1	       -4.10070523171395        -2.5105291839861        1.66487167668492
U2	       -2.65903674187912       -4.00238113115657       0.571705183579816
U1	       -22.0698341783757        10.8582960271188        19.5439613708223
U2	       -23.7425127022127        9.24938749761404        19.8795021989529
U1	        3.56358019374765       -8.45738371125238       -50.2151867954992
U2	        5.32827661093614       -9.70428655896509       -49.3041414410078
U1	         18.021240058283        59.9028101644565       -9.19577814453936
U2	        18.0314458840841         60.448533172263       -11.4763411628788
U1	       -25.2614442174649         2.1652662026988        26.0591474227569
U2	       -25.4014193053316        1.87428098637493        28.3818123481402
U1	        22.3351458459553       -61.7486077203806       -10.0383756590266
U2	        22.6892171311813       -60.2408047374893       -8.27761781430905
U1	        8.42735484735838        13.3810060891926       -26.4220442512107
U2	        10.5647750183944        13.8939177474388       -25.6051036308058
U1	       -10.8583975732899        32.5101992785895      -0.457685098765406
U2	       -13.1905324603395        32.4025875191339       -0.23772745912059
U1	       -4.16345041241576        19.9302541327916       -13.9951455303111
U2	       -3.92636081594349        21.9290001036511       -15.1983404414325
U1	       -33.8224028246058        48.5863605581069        3.57060527842547
U2	       -32.4018482068538          47.59020893419        5.14818049470536
U1	        22.7320893765221       -15.9057825867566        1.57254873861725
U2	        21.7878894108213       -17.6381792558766       0.305114282409525
U1	        4.16228790956568        -16.361251605814       -29.4661574471039
U2	        6.22897966259953       -17.4672733907079       -29.3999170505163
U1	       -3.35678035758463        41.9805758540639        30.8188336562544
U2	       -4.72806712998066        43.1226259801152        32.3400886481238
U1	        20.3212558309379       -6.40771188374225       0.870002887251121
U2	        18.8614973051894       -5.24212733869183        2.28754743132818
U1	         20.440212589124        17.1259584879264        26.2319819470623
U2	        20.2271371446504        16.3108726500951        28.4203798232919
U1	        4.81717971121593       -34.9913433081498        10.2982789375687
U2	        6.55370579500207       -33.4618565305153        9.91882740069093
U1	        10.5647209503872       -16.9809981619663        22.2506447449954
U2	        9.03255461887592       -15.2175480185939        22.4548177163489
U1	         3.2029026094477      -0.778931688817718        9.14912929905382
U2	        3.99882200740582        1.41726318690909         9.3546198381171
U1	       -2.29265676003213        18.7070455613197       -17.3459689101571
U2	       -2.46529901052349        16.4232763824549        -17.849566657556
U1	       0.114111280318421        7.10243486889935       -2.64855682409323
U2	        1.10473070910244        5.46877921315701       -1.28877769503025
U1	         38.465588673601        24.9937890057664        13.6995066345237
U2	        38.7860016064669        22.8088536347388        12.9105482948268
U1	       -11.7841216431813        50.8091192385854         10.127374775549
U2	       -10.2717402355652        49.9009704512827        8.58239866778029
U1	       -19.2410300714686        32.8002524053903       -11.8637479975851
U2	       -18.5592299591392        34.8083917251837       -10.8629803058624
U1	        7.25493800319757       -23.1709076669461        31.5918729510172
U2	        5.67879862280184       -23.9026797391096          30.01725442843
U1	        45.9587528698734       -33.0890315768714        26.2699996092073
U2	        47.1536868146312       -33.6624475548683        24.3354898652574
U1	       -11.6236535974249       -16.3430730295597         40.082628208846
U2	       -10.0778906732839       -14.8071422761117        39.2163437600863
U1	        1.84630750900115       -6.15111200579233        20.9026066238509
U2	        3.17943660518666          -5.31050732818        19.1661679569864
U1	        -36.566072013502         22.207983629509       -66.2310419395788
U2	       -37.4882742971618        24.0829762317557       -65.1666608834282
U1	       -7.62730608233504        26.6063142540345        45.0474754319465
U2	       -7.12097784039385        27.6291493945974        47.0960093650867
U1	       -68.9969544266846        3.61995196898284       -1.00495132734248
U2	       -68.8793889787267        5.58879647074497       0.263407151235131
U1	       -23.8255672754719        59.6354095890453       -16.8685013694828
U2	       -21.7046862030763        59.2170243319412       -15.9596515158258
U1	        7.26996319787351        35.3116149747847        6.90444850856108
U2	        8.74170431406269        33.7962013166073        5.88634095478247
U1	       -10.7201078452046       -18.8294073438749        6.16049300870969
U2	       -11.8911613058578        -20.815908478508        6.58662165458843
U1	       -27.5687495641453       -1.89311304791683       -17.8048970458676
U2	       -27.2120696519505       -3.90245320708714       -16.6497497021454
U1	       -18.5792454626992       -13.0678338696102       -13.1550578777835
U2	       -20.0649292447249       -14.4807720964203       -12.0169444829155
U1	        22.9908058889704       -11.4385278956639        28.4187475855112
U2	        22.9012121232384       -12.2643002247747        30.6117140743956
U1	        5.91879995582438        13.7728325090775        53.4205459109242
U2	         4.4406580521739        15.4862794194374         52.805534398407
U1	        28.4027467973156       -41.6222734535321        9.82152182035141
U2	        27.2686903296028       -40.6704067859815        8.00312237191562
U1	      0.0812412268267061         12.047940656211        19.1455493589136
U2	       -1.62103642069128        13.0424492564375        17.8758016353088
U1	        19.5846627006327       -29.9879913040742        38.6201873480061
U2	        19.4831719606159       -32.3308129971597        38.6152963746956
U1	        2.09195732684536       -23.8840212304043        -11.817809905627
U2	      -0.030178802776825       -23.1248491497474       -12.4652365530055
U1	     -0.0693459797108981        23.5637940573889        32.0791463793633
U2	        1.32335690622531        21.8117973441136        31.3792308806736
U1	        19.7493252207082       -11.6880541466818        15.3529120770236
U2	        18.5484747227294       -13.6656244460909        15.7354545400496
U1	       -25.9891812966723        27.9519843238489        6.06652447402066
U2	       -28.0977996831176        28.8640906215856        5.59690113079816
U1	        13.8149899424395        44.4824386503064        44.9941825111625
U2	        14.9217179435625         46.059010716798        43.6568273796342
U1	       -32.9985967014609       -35.8842606082681        25.9758739836039
U2	       -31.8978258571936        -35.604381753659        28.0274608757197
U1	        13.8524602254689       -22.7158562624757       -11.7149647358221
U2	        15.5717669820462       -21.1904295793552       -11.2499446996863
U1	        21.8176981699032        32.4347706921919       -26.1931291519766
U2	        20.2316044371749        31.0522702023693       -27.2285138343326
U1	       -27.3157494713748       -24.5801743109469       -22.9203549328697
U2	       -26.2481494987154        -22.951060286414       -21.6145277661424
U1	        42.1339604382814        9.65472278257237        2.48586569494268
U2	        43.7340503027281        11.3407242663745        2.79562975362658
U1	       -14.6149271118736       -5.17474538402978        20.8933162877325
U2	       -12.9748218969683       -6.21209521187406         22.209755283999
U1	        55.0165371061473       -6.32476168298455       -24.2916799716479
U2	         56.203722046288       -4.99695700122576       -25.8170038678335
U1	       -24.8640463878567        13.4484673698248        19.2846052298152
U2	       -26.5850938561953        11.9013778699688        19.6633712436048
U1	        17.9964371814119        43.9059274940213         52.212260662542
U2	        19.7790963173366        43.3475061289008        53.6297650689438
U1	        23.5306392848221        14.6532534228876       -2.59920360375507
U2	        25.6507022267355        13.8924154767136       -1.94699321208379
U1	        14.4792163553757        45.0256631635453         5.3394148099536
U2	        16.5623233240115        44.5972576543468        4.35140279619343
U1	        11.5137475187733        9.73653930825024        7.55573932292165
U2	          13.13582467449         11.421937829249        7.72105704947924
U1	        1.79599782528572       -8.70575453479861        54.5210033460319
U2	       0.857891575083524       -10.7365403409582        53.8174930398547
U1	       -2.62642766190001        7.77288460437494       -18.9351304468748
U2	      -0.894066701208282        6.21043123846261       -19.1730569620369
U1	       -14.3680209305725       -9.67306064353678        23.4284701282328
U2	       -12.2878780240431       -10.3187063666699        22.5595398179367
U1	         23.234168205295        19.2337704381318       -24.0098240784118
U2	        24.8936772109017        20.5528025168756       -25.0123851102029
U1	       -18.9491139289827       0.392682660520141        15.5075021614996
U2	       -18.7249064745191       -1.50781760797653        16.8628228088979
U1	        23.3174689457155         4.4944067531397        22.6676437392874
U2	        22.2187968103284        6.34459313765879         23.599682496423
U1	      -0.466003583107403       -4.09922810847954       -44.9581791178307
U2	      -0.129924671067571       -3.70423855481299       -42.6712574107615
U1	        5.69699653654777       -11.5778820682817        2.73647502958533
U2	        6.65501576138444       -13.6101353100121        3.40814993019677
U1	       -7.60359798070856       -1.34025975328768        11.5323038995907
U2	       -9.83455908424519        -2.0600354972217        11.4724284210237
U1	        20.0353484536075        26.4191747148835        48.5808542600715
U2	          19.30811496358        24.2362645667249        48.1279992699043
U1	       -44.9405610386723       -12.2104368895198        36.3915355812885
U2	       -45.3630127533386       -12.4284553024644          34.09522064768
U1	        19.6233232299218        40.2761852986091       -4.25284318325222
U2	        18.6316021477168        38.1694645759595       -4.53065174174266
U1	        8.61034902194269       -25.4941325613013        20.9968381948264
U2	        7.36955308026941       -24.8535520194675        19.1130031257016
U1	        12.1286530783852        53.8676335328688        21.4214592829443
U2	         12.018557397462        55.9729612900752        20.3946730727724
U1	        30.5961887750485       -2.88010034859219        2.28315375809095
U2	        29.3975191960698       -3.48914172423821        4.20440105648419
U1	        13.3943753786033        6.23494924718058       0.299646665430113
U2	        15.7165098558455        6.11141595187188       0.602094741369466
U1	        4.77051659774525       -10.1522790400441       -4.77311971321953
U2	        3.43043972250396       -9.56665575139691       -2.94000406473963
U1	       -23.1111081237069        19.2209475859521       -1.92054622922687
U2	       -24.7718922895956        17.9145913099211       -0.90361680389578
U1	       -3.32529234970482         21.817434395748       -8.38707542505076
U2	       -1.98687801146196        21.9154739987469       -6.46404713015381
U1	       -4.17692070446344       -12.4178076748687        28.7910512355065
U2	       -4.38214983077295       -13.8946192327785        30.6009314475303
U1	       -17.7010927084559        49.2123088456741        27.3920350752738
U2	       -19.5925846346563        50.1114339886597        28.4469398709173
U1	        16.5054041999927        13.0613669692309       0.569192273044287
U2	        17.8144882825567         14.786792251805      -0.329686146014294
U1	       -49.4174536474073        0.43284257247327         35.498291743115
U2	       -50.0501119564753      -0.212719695326099        37.6620827138229
U1	       -32.3930056890433       -37.9530242152021        36.4474615425233
U2	       -32.8205159758442       -36.2189045250584        37.9670397080782
U1	       -4.88062437825711        2.46271320931971        17.8912564060845
U2	       -6.62914506941221        3.75679536899694        18.7670556504674
U1	        33.5953242971653        17.6153210441795        42.9057944195545
U2	        33.4307616205295        19.5678307921287        44.1940184189788
U1	       -21.3189317974224       -11.1854652294389        15.3273739729354
U2	       -20.8668936235519       -9.84708530299917        17.1991298892142
U1	        47.5771757223689       -7.92195780421834        36.5688808019956
U2	        45.4879947299133       -8.85585362296808        36.0568664784268
U1	        16.4949164023724        34.8919743424846         25.190641222485
U2	        14.5377829309527        34.9017065473531        23.8989029160147
U1	       -6.16851782222094        15.3033346620772       -8.64148853665261
U2	       -5.39798969773973        13.9504308793313       -10.3950350052314
U1	        1.54619770138829        2.43780002543608       -29.8457374279065
U2	       0.815626498264284       0.303293945675449       -29.2062786493809
U1	         27.739291862495        20.9897029102489       -33.1005265594697
U2	        29.9907714871796        21.6000248998395       -32.8613713525773
U1	       -51.7165397427251         2.1272994436229       -36.0070474124248
U2	       -50.9578943492333        2.75250391851801       -38.1360031956749
U1	        33.3497361448968        20.5640607908042        4.13522216761181
U2	        31.2086072252378         19.696814131015        3.73208288908243
U1	       -24.5159783209917        -15.782909300225        7.19293920102235
U2	       -26.1509647282487       -15.8400905892773        8.87301730547517
U1	        10.2287787772045         13.418760093196         25.964331524533
U2	         11.567116253579        14.2304013568445        27.7104085156656
U1	        31.1554979094713       -16.8966390933137        31.8598929753004
U2	        29.2710625115403       -15.6394258240672        32.4658671633344
U1	        6.51033939024556       -11.5961114812994        18.3955951231473
U2	        6.67705432524587        -13.740574577572        19.3296090712094
U1	       -7.55443504091741      -0.661217842119373        1.26780277763274
U2	       -8.50278403252075       -2.39071265786779        2.53609685736008
U1	        32.8916828062958       -1.97663799503676         16.942760488918
U2	        34.2593857022425       -1.62933547137535        18.8156710416481
U1	        -28.444335766344       -13.0552710631322       -4.12743236636697
U2	       -26.6929592034175       -14.3277423253255        -3.2261019395968
U1	        14.6112141361553        22.9567590630877        12.1277598083712
U2	        14.4739262062661        25.2874446982892        11.9079443971837
U1	       -9.52677438157216        16.9556317506662        3.67772096164275
U2	       -9.81797964450156        15.3882422433585        5.39740288353424
U1	       -42.5169558179262        10.0579368211986      -0.531632530550744
U2	       -40.5334841333613        8.87535499751341      -0.123884829838106
U1	        6.71728251669084        39.2854446837561        6.36463577378948
U2	        8.08284509189596        41.1607302055809        6.02202193918443
U1	        9.06835681879124        26.8355999991224       -23.7412137446735
U2	         8.1563620011423         27.726988589712       -25.7091517644937
U1	        7.72971653668895        4.53807161920989        11.0244606873152
U2	        9.19368798222646        5.89944472250185         9.7986727923275
U1	       -2.67603808479315        13.0197582592192        5.19380215996571
U2	        -2.5643578937289        10.6873140506966        4.97876998202042
U1	        25.6479100550428        37.6594920222753        18.1103144968943
U2	        24.1894923207736        39.4911868111334         17.980180243023
U1	       -36.9726730885308        13.5905327205067        16.7803715303948
U2	       -36.7220632754627         12.105013536108        14.9833352540834
U1	       0.973955668830412        7.00219992092194        22.5150758374126
U2	       0.567819258651026        9.31115904003259        22.5662423858321
U1	        21.1726418139992         4.1332397750922        11.3308346430044
U2	        19.2614625279255         2.7758966130698        11.3944603330048
U1	       -21.9928709561902       -9.76695162484718       -8.75109429426839
U2	       -23.1739881053478       -11.5355312328379       -7.76323989182063
U1	       -6.02665773172316         -26.30106769843        7.11721852014682
U2	       -8.19652324702827       -25.4256539812933        6.96173630381346
U1	        17.2996549862835        23.2719167634142        28.5303918243208
U2	        16.8058674443407        22.3269574197522        26.4418075505445
U1	       -9.60985227169993       -5.41626153217482        5.29377768737692
U2	       -9.75124995550478       -7.20546260441269         6.8030372238435
U1	        31.6176417523884       -14.2645179745033        15.0191478908459
U2	        31.7615779579996       -16.5893534209164        14.7481150787051
U1	       0.619507985489319        35.9756900528961       -15.5333395928677
U2	         2.3000288540363        34.8099471575536       -14.3863281270738
U1	        -25.295630911644       0.421127900379663        2.35865494803484
U2	       -23.2041122973834        1.28379656434578        2.97542275080247
U1	        13.3905359856167        15.5372945126704      -0.149769764487903
U2	        13.6777583082821        14.5229052258608        1.94481325487164
U1	       -57.3022709722104       -29.4454330215275        -15.615096071568
U2	       -56.5738062644586       -28.6618896959531       -17.7017992617216
U1	        6.09819346669048        16.2176180719497        15.4495335714072
U2	        7.93761262923949        14.8972099191135        16.0595385639829
U1	        6.46377154310489        -28.331893763304        17.9473760252667
U2	        6.72329842138554       -30.3940701167377        16.8615116040757
U1	        37.4223094936169        27.3112054590431       -4.43911435122085
U2	        37.8666816292857        29.5964949874201       -4.71978411493761
U1	       -17.0318200415206        -29.985536821598        21.3245102576213
U2	       -16.5560406155149       -32.2814690972484        21.2873488323046
U1	       -32.9507611417071       -25.6214752766226       -2.03987710111388
U2	       -34.7817023992902       -25.8903994165149      -0.599702133555377
U1	        23.4820919609392        11.5315260588627        4.24121291523783
U2	        23.8749482194708         12.312317729661        6.41716539456408
U1	       -23.5128987587956       -7.64652903647724       -3.10155016976513
U2	       -25.2027367031756        -6.0524797344473       -3.42177926617736
U1	        22.6970251552723       -3.26608722663616        7.68878862445444
U2	        21.6552222668928       -4.73329589904358        9.19247994784767
U1	        10.9670330842602        4.21241940119647       -15.5859303556316
U2	        9.05901645941078        3.49213832592886       -14.4286276993181
U1	       -5.86154140063435        31.6966592072334        40.6237651035087
U2	       -3.57238966291223        31.9154306243831        40.1647154829986
U1	        1.28682143587215       -22.1207603127015        13.9498622605175
U2	        1.69191052642484        -20.436625188788        15.5304969596562
U1	     -0.0111411743332374        -12.454436545286       0.336586450446268
U2	         2.2841937709854       -12.5220735638073       0.811937032995956
U1	        15.9024661683996       -15.9071168714705        17.7459233594642
U2	        14.2399473173598       -15.8460315245285        19.3986172965915
U1	       -36.1983854141715       -3.65533496600186        -6.2144672797831
U2	       -35.4886146466268       -5.36474544399202       -7.65432178573122
U1	        37.3977346204439       -7.67012263583671        19.3446053455087
U2	        39.6144067092481       -6.90597151365461        19.3810254009526
U1	       -2.60758432140328        8.79572527921554       -5.31453255380212
U2	       -3.24575156895822        9.81355235479114        -3.3006259888455
U1	        5.11918483195891        6.43005890479639       -17.9420431957735
U2	        4.83200046801745        6.63408214751945        -15.623670739704
U1	        32.5797740843718        3.78044738356777       -6.36590281262378
U2	        30.5710373719674        4.79481059021172       -5.70625510097813
U1	        28.5847870571704        31.9057338433124        3.71045063421571
U2	        27.9370184544223        32.5896820830943        1.56299041096268
U1	       -7.81250770159135       -12.6235065455811       -11.7752022342442
U2	       -5.65017752073112       -11.9726011571188        -11.143057309749
U1	       -34.3750658008388        28.5668444877473        8.48156681848736
U2	        -34.724111162306        27.1578051648555        10.3232175029117
U1	       -4.83298560448419       -58.4533043899959       -5.77082806339811
U2	       -4.00903839291428       -60.0768779150073       -7.24873188775286
U1	        25.2113612088376        17.2669072804909       -5.18477886939437
U2	         25.329732715216        18.8104170572934       -6.94623678344472
U1	       -10.4915918442064        8.45397455287442        49.1363911641895
U2	       -9.82453654704347        6.59838474380423        50.4055991722581
U1	        45.7944898131046        1.60066184668298        2.50152115611652
U2	        43.8842985687073        2.94963671625086        2.32744252082628
U1	       -29.0965790807654       -35.4587714752909        25.2797180207041
U2	       -27.5933991498097       -34.6309743627697        23.6815054782269
U1	       -10.0178625476511        43.7563230965015         14.347518795064
U2	       -8.86211859220454        44.1814831717282         12.351912137878
U1	       -30.3017706117246        23.2305783919932        15.0371760391364
U2	       -29.8941471111696        23.3494579803856        12.7309465248768
U1	       -10.8849566335455       -9.83657026849691       -11.2881284533274
U2	       -11.4727359251605       -12.0624135952378        -11.734395212398
U1	       -56.0721635182865        5.41008041938577       -8.89509258018834
U2	       -56.3038077647187        7.19331469095409       -7.39000761202074
U1	        6.69953466961768        32.4993787400119        52.1458468479047
U2	        4.54109900424618        31.8211524411224        52.7623587064128
U1	         21.374406956201       -42.6498400623191       -8.53997695526662
U2	        20.6838356611133       -44.7851336781921         -9.220367896079
U1	        -49.282653803056        33.7672984513282        38.8123674689038
U2	       -47.1652880233605         32.763386807083        38.9015737361168
U1	        36.0897308650531       -17.1460872173879       -3.71567132705226
U2	        37.8976601507373       -16.6048869225697       -2.32373419613857
U1	       -2.87221690918759        10.8382342848187        15.2874862355595
U2	       -2.34756833544088        8.58025069920053        15.6413133608027
U1	        4.36965715849051        27.3551253213314       0.653926879768931
U2	        2.47407613801604         26.437372800648      -0.377367461606219
U1	         25.506533993484        15.2096700055411        7.11079834868668
U2	        24.4472299332476        15.8657864711125        5.12425794503117
U1	       -18.7482165113586        23.0901200683003        37.9541454295157
U2	       -18.2632859370913        23.7005384435794        40.1657551306378
U1	       -10.3410848358899        9.26730819163066       -20.7383568757478
U2	       -9.48097316152372        11.4255049966819       -21.0567356495886
U1	       -12.1160247965204        24.1653409619041        73.5353291947518
U2	       -12.2803823545924        22.1046400727442        74.6424133906735
U1	       -50.2726811193599       -15.7817129933824       -17.8859979573986