1101
!ProtoMol (built on Dec  4 2007 at 10:46:51) generated this XYZ file by tcickovs. Time : 125, step : 250.
NH3	      -0.424100167200265      -0.266704649508114       0.144216221843271
HC	     -0.0862696854694984      -0.681243489881904       0.105450637301024
HC	      -0.660561034278179       0.648712365283061       0.113290291109404
HC	      -0.107344358626544     -0.0647930629254311       -1.04797128485392
CT1	        0.37020251177967       0.207800931352049       -0.01511539606431
HB	      -0.464357648736698      -0.831083078849391      -0.192518363497621
CT2	       0.117620567730678      -0.120556635782668      -0.140804112354252
HA	      -0.342983311452591       -1.04451166419081        0.51010762094703
HA	      -0.251130209089763      -0.265274936600916      0.0460756605707581
CT2	       0.075082426641731     -0.0489639670502164       0.188154665161893
HA	       -0.89990812552532       0.845427597480591     0.00146345616885806
HA	       -1.16403483529862        1.42533367678797      -0.427605173057204
CT2	       0.133890593315632       0.325774713234011      -0.103424543491779
HA	       0.541729201631041       0.926325679617096      -0.406318470556185
HA	       -1.14721958969095      -0.589011112132612       0.573897004064218
NC2	       0.206557482341346       0.193783417608616      -0.125803343495026
HC	      -0.387333897185691       0.773785614579474      0.0449130209243279
C	       0.240219888891176       0.175178141010283     -0.0839938537692715
NC2	       0.360818490075324       0.176192325923438      -0.250546457994481
HC	       0.803440314795168       0.116531649157633      -0.247741428428874
HC	       -0.14063002008248        2.04212340345884       0.050773225365894
NC2	       0.147113049811393       0.353862812655224       -0.12120447241746
HC	      -0.271532659885481      0.0610227266700737      -0.570942985583267
HC	     -0.0146396742140905       -0.36305952598096       -1.18905154806128
C	      0.0740085103572301       0.440729324807467       -0.28489446208584
O	     -0.0325693597436261    -0.00787077836635104      -0.175343954913073
N	       0.156625415405669      -0.110182490016418       0.254875051573886
CP3	      -0.127880098640519     -0.0823069111891779       0.261543039928723
HA	       0.211733021713285       0.534451240140791       0.623353869856982
HA	      -0.821776210523748        0.14203490593944       0.526420175665213
CP1	       -0.13663442412754       0.588001397085411      -0.257795469926521
HB	      -0.554035397932347       0.466360571024831      -0.658500138419262
CP2	      -0.237081210221204       0.250074594731176       0.436085179815687
HA	      -0.450514239754732        1.88485744231615      -0.213268880249901
HA	       0.741830405461221      -0.525344911174474       -0.73125520225244
CP2	      -0.113841709442537     -0.0279870351560666     -0.0785217943750109
HA	        1.68811096546396      -0.117503893928385      -0.627481691574791
HA	       0.497090472308359      -0.544580113756774       0.428710643546545
C	      -0.122815724975133      -0.405961807883469      -0.119264225174851
O	      -0.103304758009997      -0.111423850598699      -0.252958470548727
NH1	       0.264816023008397       0.194070275996935       0.140221323079974
H	       0.684719875302116      -0.347723083353094       -1.18394499904047
CT1	      0.0639644104827245      -0.329058977948048       0.177164744345664
HB	        1.74520443022166       0.819527471218555        1.14223789360025
CT2	      0.0268949193186785      0.0508805548439598       0.118751960949899
HA	      -0.880976771329104       0.919259172467151       0.630605024513571
HA	      -0.875563258548276      -0.548742780161697      -0.966681138797619
CC	      -0.122321280927632      0.0261352864825789       0.110092084620355
OC	       -0.25282927190982      -0.135003573475278        0.11996766648088
OC	      -0.146214454296021        0.23127844058817       0.215148633368185
C	       0.161891460428967      -0.303118450696423      0.0532398084271993
O	       0.170346198116176     -0.0688843003347931      -0.173403194997286
NH1	        0.15714164254686     -0.0598721678879738        0.17653933505473
H	      -0.533716600507668       0.997221488356565      -0.711969080641248
CT1	     -0.0154711581287295       -0.21767647099883      -0.115476266011847
HB	       0.636032349619346      -0.914767280778384       -0.55630253817875
CT2	       0.233614969878471       0.258879535227518       0.379780718062614
HA	      -0.779351498817918      0.0680477175644058      -0.164492865569024
HA	      -0.946011861018983       0.255721847701951       -0.65016070598254
CA	       0.241255824538194       0.257119973804994     -0.0511952360730084
CA	      -0.322565665741737      -0.115331988961305     -0.0253285210727355
HP	       0.106067308825964       -1.80479125340869      -0.560387328825744
CA	        0.56568800920733       0.191463970203545      -0.233372971844096
HP	      -0.424813563732135       0.988941706163281       0.364744007432039
CA	        0.20615000875124     -0.0137382039679854        0.19478524501351
HP	      0.0508561405457629       -2.32216491186075       0.246137174087431
CA	       0.431912954508816      -0.102651857315046       0.114512592189488
HP	        0.35496371801216       0.802953156580409       0.581871694508811
CA	      -0.194818556200368     -0.0776102701131993       0.208746866089451
HP	        1.06085504665425      -0.526932959943697       -1.41541922930403
C	       0.186189950770915       0.417372244050939       0.268919215332291
O	       0.242266593095391      0.0709961774480495      -0.124068286862752
CT2	       0.400976487687793      -0.170097268376427     -0.0870066280680591
SM	     -0.0109617289115922      -0.253344844989878      0.0545048704483417
NH1	      -0.175415405859798       -0.27740101395065      -0.528708770961046
H	       0.204577702580536      -0.820982506201284       -1.13343884856403
CT1	       0.243140584196644       -0.41046713783437     -0.0361708206647634
HB	      -0.750725492330253     -0.0393430608876742      -0.316063168610151
HA	      -0.470148547719234       0.973157172559377        1.50173795129358
HA	      0.0980884798437734      -0.185183431882491      -0.565345500083654
C	       0.108361052876212      -0.410367849633083     0.00686895260735983
O	      -0.116641361145806       0.369575907491615       0.131052120016573
NH1	       0.102647625011202     -0.0938715447619157     -0.0804741129859871
H	      -0.476389611516601      -0.484962575249548       0.404930794971243
CT1	      -0.106918357049892       -0.53225270487813       0.219543359833914
HB	      -0.195874155076647      0.0744023191545611      -0.897323246151091
CT2	      0.0412593515113763      -0.257184726484016         0.2915454812501
HA	       -1.36328975082243       0.922606979403347        1.48205424534832
HA	      -0.282457674483436       0.257860664174911        0.16476792906563
CT1	     -0.0610660886245869      -0.177901403759216       0.149026549580415
HA	       0.614648728136013       0.457587646658461       -1.63645246174418
CT3	       0.048107134092502      0.0613277384562605        0.11902808048538
HA	      -0.916284783517929      -0.175189296883558       0.767162590592398
HA	      0.0250627891520924      -0.107676261931844        0.61605972056866
HA	       0.823156962523716       -1.53641365286615      -0.304435555257666
CT3	       0.086164811268028      -0.072862293312451       0.202778989561075
HA	       0.447380094705257     0.00733673150803906      -0.763870087329903
HA	        1.25378106756465      -0.570529210672238      -0.299180371900338
HA	      0.0203021893274419       0.877433827808982      -0.221077335911032
C	      -0.589886766004343       0.346019390833243     -0.0128553902781164
O	      -0.143476829145156      -0.110326786986328       0.325538924885848
NH1	       0.167160765958601     -0.0261344536407462       0.305737085800159
H	      -0.268408103519145      0.0600510818445604     -0.0266210243696427
CT1	       0.454994122360184        0.17712055969378       0.268070142872439
HB	       0.620602441847471       0.198149882268623       0.447363607080768
CT2	       0.201704112502709      -0.285591229303619      -0.391953771608735
HA	       0.196187387605092       0.184753635343585       -1.34082040099141
HA	        1.52174869630147     -0.0276878257137376      -0.353936828268623
CT2	      -0.126138038840961       0.131072177928548     -0.0570246088917275
HA	       -0.16136540382865        1.05227843504168       -1.16410186617731
HA	      -0.125376318439187       0.643232003659928      -0.982992529422561
CC	      -0.184133852754123      -0.029054277354643       0.216675008408495
OC	       0.385453649737867     -0.0150431915868727      -0.161231617231754
OC	       0.132629058085592      0.0192260526530089      0.0264079975744017
C	      -0.305047293667961       0.329555844991838       0.360318350171997
O	       0.232182787926615        0.20320341909362      -0.327559247216003
N	       0.152656097223204      -0.112223508249743      -0.280006718564896
CP3	       0.311100041298625       0.201920751867017      -0.393642837121138
HA	      -0.417067215002464       0.772009472173095        1.74323156944729
HA	       0.552336366209504        1.25246909353393      -0.192665211647151
CP1	       0.200313102691407       -0.12854892701931     -0.0701558885739774
HB	      -0.859951308009178        1.27307079197588        1.38472841414893
CP2	       -0.20858066998232     -0.0353641943540101      -0.322745446268423
HA	      0.0392944799806958        1.67958083655622       -0.55434885955609
HA	       0.450599077130167       0.625776917758523       0.758691058061873
CP2	      -0.045132428995176      0.0157189708448004      -0.351763300418401
HA	      -0.292627551063931         1.2557019626804       0.553103067130044
HA	       0.633226423953765      -0.799060231087524      -0.586525367082878
C	       0.102598206181566      -0.329554562771098      0.0717299323337142
O	       0.115161699741552     -0.0757893478448704       0.238819781080538
N	        0.10950701449213       0.141708001008244      -0.034382338745665
CP3	     -0.0720774839269168      -0.292136132822557       0.153375696271418
HA	      -0.188785078243162      -0.162595528275987        0.88882761022016
HA	      -0.224028393684488      -0.629416065453993       -1.41430633042622
CP1	     -0.0761759342892369      -0.337442855720207       0.216714009514382
HB	       -1.57783365689412        0.41373456380568      -0.659402820545545
CP2	       -0.13399383158349       0.360792693296414       0.178142355198696
HA	       0.126315453909723       0.457582903574591        1.71492870042543
HA	       -1.38952494971273     -0.0143428861852889       -0.54893095547014
CP2	      -0.256629107695169      0.0897068929096559      -0.254405388229369
HA	       0.705754896944748        1.22352130935893        0.70493761529292
HA	       0.378229110739245      -0.737427640924305       0.569882497533011
C	       -0.14223053478815      -0.198434491037708      -0.046904922701644
O	       0.120020677973819       0.441863178980163     -0.0208517468654076
NH1	       0.294678328473634      0.0370399524376122       0.288794316933994
H	       -0.41623662185953        1.13238924895735         0.1722724411877
CT1	      -0.157983747132495      -0.104998718830503        0.24631495609704
HB	       -0.59681845367943        1.15683952643347       0.854780607194008
CT2	      -0.427756914118839       0.012127984105603      -0.307614653037768
HA	       -0.62989206876263      -0.177118766840813      -0.159483439539114
HA	       0.884154255978538       0.996113879779812        0.68436891375292
CA	      0.0376653450341864      0.0397613182456908     -0.0932330868646356
CA	       0.124094174959444      0.0133455737641066      0.0711678592099938
HP	       -1.34828734291286       0.684469406593096       0.708432151883534
CA	      0.0810708332323304       0.254908142866757      -0.324255883545494
HP	      -0.316078551033385       0.164515808397997         1.1281353911518
CA	       0.119768902112566      0.0812808390135481      -0.234622281154103
OH1	     -0.0731183413457371       0.103706898507992       0.143259787928656
H	       0.904743360097588       0.868588426750661       0.728580797444477
CA	      0.0125547006841767       0.487414519775619      0.0363267723382857
HP	     -0.0603541214853752       0.322253199422873       0.121881261527059
CA	      0.0476105675033534       0.379089511331631       0.043815429120337
HP	      -0.837789668809255      -0.367284942615757      -0.637168940201337
C	      -0.175365187625085      -0.136091196276932      -0.180242642659944
O	      -0.108738892341638      -0.130098157882544      -0.186959652932738
NH1	       -0.26830215954234       -0.54629571877976       0.210753424274539
H	       0.318013761078306      -0.369283544753492        -0.3722618036066
CT1	      -0.159866285177088      0.0237420279912712       0.217622890488579
HB	      -0.207132971911509       -1.30417667922372      -0.493332315820198
CT1	     -0.0755654591299992    -0.00641127531126377       0.165736437623938
HA	        1.67620602193685      -0.104417169569008      -0.317443012169028
OH1	     -0.0414578634260045      0.0607994085371402        0.27579876046661
H	      -0.165921116046168       -0.47681491747873      -0.146970420282108
CT3	       -0.22765380018803      0.0374647813805903      -0.170667999682886
HA	       0.803004695931671       0.765187376945706      -0.963218584219737
HA	       -0.11660770932097      -0.418792627888414      -0.869927326693383
HA	       0.902468837328127       -1.08490268126289       0.827807382403252
C	      -0.215126240542519       0.198932259075938      -0.358186148892187
O	      -0.289212510290894      -0.162839635900002     0.00234963658304751
NH1	      -0.231672141547342      0.0994729944910235      -0.196776667713291
H	       0.704778792024921       0.263979086705951       -1.39428174203686
CT2	       0.241947303817355      -0.015416948619715       0.385617939248789
HB	       -1.07995567457627      -0.377853968538041       0.927240123520794
HB	       -0.90186490613596      -0.410800729456023      -0.899027878121626
C	      -0.208607027486157       0.170181539626632       0.209891592491376
O	       0.256832414712166       0.155660763550337      0.0703058554242562
N	     -0.0315069913040641       0.145470197207899      0.0882730825668308
CP3	     -0.0207677351497211      -0.199877045143131      0.0403422142663877
HA	      -0.147411119500202      -0.399466585768442       0.912239775616519
HA	       -1.01491544589633      -0.172237444023391      -0.944481125824398
CP1	       0.166972231862052      -0.216810142314569      -0.214198728512447
HB	       0.301566647113771        1.17432093420327       0.198289868419893
CP2	      -0.255991865800019       0.070119586915712        0.14452962930422
HA	       0.397532127243443       -1.07285249559444     -0.0387941508372637
HA	       0.124575631291547       0.160238067015314      -0.274804547862975
CP2	      -0.131552504154152       0.292964798167722     -0.0389796058917336
HA	      -0.369635036130861       0.609570577829808       0.975479970652586
HA	       0.592617925662707      -0.013205718972896       -1.15313270103031
C	      0.0507165846062386       0.204283194482666       0.067646034505491
O	       -0.14771133205908     -0.0955091275606554    -0.00548956360400017
CT2	       0.235656693015002      -0.143192809583502      -0.188849726028848
SM	      -0.489920887755664      -0.104805259743677     -0.0870040682438095
NH1	       0.295671889266683      -0.139007580926721       0.282128039822738
H	      0.0436293592568154       -0.98747434024363      -0.553454185942201
CT1	      -0.592649180653821     -0.0159089932795933      -0.632083063731179
HB	        1.14231420404058       -1.11640717530286       -1.00883754022657
HA	        2.24739512753214      -0.388007731589048       -0.84788666560184
HA	      -0.588811762385283       0.407167312204655      -0.169379138495562
C	      -0.262381350899723      -0.475778782242399      0.0316605383821508
O	       0.346870984722527      0.0309246148182137       0.141634644494135
NH1	      -0.148469994570289      0.0800395747401057       0.225455182644165
H	      -0.513351661543614       -1.98624847976958       0.148288511746425
CT1	      0.0934970642964863       0.263240930787779     -0.0712655064329051
HB	      0.0319284719089331       -1.00405070006826      -0.801334675613076
CT2	      0.0718166870826817      -0.182258196382417      0.0748836707965293
HA	       0.227818562004437      -0.124643199194132      -0.172063838645121
HA	     -0.0931009059536361       0.169531051220262       0.468808625181904
CT2	       0.103417229195717       0.183975412935326      0.0335950273021299
HA	      -0.288453516164355     -0.0322651159233306       0.837883412027494
HA	       0.421541669479639        0.55773841516377       0.285680202432156
CT2	       0.207304054503836       0.407119860035963      -0.251613987803959
HA	      -0.811784883281163       0.249216034892804       0.792728661935306
HA	       0.685440536110969     -0.0212199774829766      -0.240878040764401
CT2	     -0.0845693805560532       0.105392549632538      -0.295689429337367
HA	       0.902902965167435       0.633140424365434     -0.0717690476374984
HA	       0.255498413393172       0.601855523523344       -1.11186754765786
NH3	      0.0560770049833445        0.01149389585635       0.141836248617484
HC	      -0.100652171417938      -0.666831720439748       0.526014906252971
HC	      -0.218714055403826      -0.103490590332664        0.99013107906354
HC	       0.267144750398716       0.518192015618282       0.773145069436422
C	       0.313408167603477      0.0891399025655091      -0.230426353146004
O	     -0.0259503617845536      -0.292073688150278      -0.073078600439856
NH1	       0.199212947579475       0.268112368017579      -0.202719254037924
H	       0.184327620754034      -0.700846558020674      -0.810083200980239
CT1	     -0.0548003854434933      -0.433511099323397        0.12635996972966
HB	      -0.458230289476694       -1.18513787223903       0.284854546533422
CT3	      -0.187953787917226     -0.0570054212425215    -0.00793763370105854
HA	        0.44762146431162       -1.57087781319656      -0.726010500892667
HA	       0.774357589397565       0.230879604585618       0.956154934572383
HA	       0.758707716392396       0.246677746682098      -0.268396978279074
C	      0.0326803369258214      -0.233946064580007       0.171213104213908
O	       0.188973753463901      -0.091713287402285       0.470101385154709
NH1	       0.135603321196673       0.100063459754413       0.217850711710292
H	       0.740790312177848       0.623826593735271        1.27481140543979
CT1	       0.580587730136959      -0.310112849920327     -0.0610088109718887
HB	       0.999651667344514     -0.0218685025494926      -0.841496095109696
CT2	       0.068307285860706      -0.184373800207321       0.438209556135447
HA	       -0.63275817839608       0.775595593339849      -0.878403489407971
HA	       0.686498824487446       0.117871780691143     -0.0151099428720535
CT2	       0.110759114616852       0.245779813552512      -0.141301989785432
HA	       -1.07957366149632     -0.0495261833073291      -0.357226132127185
HA	       0.880049722454595       0.604160742734101       0.114058198267264
CT2	       0.418176357174201      -0.237723537983736       0.220308657272362
HA	      -0.250280786675436      -0.031621979551058      -0.452427238679129
HA	      -0.742693388529118       0.948215757354599      -0.782208970354662
NC2	      -0.245694100749889      0.0278606059774178      -0.133286404724016
HC	      -0.413310721104685      -0.302775680625898       -0.74334319183599
C	       0.114031422224824      -0.128106692768588      -0.314369554722656
NC2	      -0.181090924471138      0.0799309341161874     0.00444892015533887
HC	     -0.0656261668372322      -0.467553484715823      0.0217650780935441
HC	       0.701765680169966       0.146808336744353       0.247624537440693
NC2	      -0.239997112980531        0.43540225102094       0.187377870954573
HC	        0.22297033959749      -0.640612143373583       0.461764519739016
HC	        -1.2601757463388      -0.311852382870492      -0.405142079686966
C	        0.41685340219857      0.0490923102017174     0.00244236699658685
O	      0.0700433609332179       0.199463233090215      -0.197691794430139
NH1	       0.238312248282894    -0.00931261570047228      -0.193398175461893
H	       0.375434695194704       -1.24131765963464        1.48640438758485
CT1	      -0.351195095732577       0.171334684188238      -0.329570286461257
HB	         1.4083775947558      -0.293854106264827       0.100565228701548
CT1	       0.287120647152112      0.0738941144613444     -0.0935054274842816
HA	        0.92139226942668        0.68009454678342       -1.31699033496455
CT3	      -0.266862831001485      -0.156576050781382       0.162316590040414
HA	       0.968800199749202       0.171538653314434       -0.30517535380274
HA	      -0.481994145914034      -0.248469318996605       0.621579072685182
HA	        1.07123852498085      -0.863701493235565       0.104003061103734
CT2	      0.0896406998762455        0.18724764616566    0.000687307098580069
HA	       0.338689523117089        1.12319813126583      -0.837342715674796
HA	        1.01204175100817        1.03823105368968       -1.22193190620326
CT3	       0.107822934521486        0.38277501300239     -0.0992213799928632
HA	       -0.12887822279978       0.835339056597997       0.313478616964108
HA	       0.581667533194303      -0.047062926844916      -0.869619519746557
HA	       0.964238166123438        2.24776209415563      -0.195670280337709
C	       0.500869602257275      -0.017045510393361      -0.227631047271561
O	      -0.216224083303903      0.0645032583733997      -0.118837515861009
NH1	     0.00628150975313641      -0.162593424023703       0.156281670730519
H	       0.739253374520599      -0.691406858624949       -1.50342358356083
CT1	      0.0623379968532738     -0.0761905337051706     -0.0837101093215843
HB	      -0.265630944537185       0.170960303852193      0.0571591915947668
CT1	       0.244137293692459      -0.189454819089398      0.0350177998956989
HA	       0.927272192580754      -0.439019021865569      -0.472144668283697
CT3	       0.259740097898563       0.192877060238958      -0.014130797933448
HA	      -0.229905941882518      -0.323300660230526       0.453792866472689
HA	        1.35846451571483       0.929987962413487      -0.233340793120588
HA	       0.976648910208254       0.635382360298093       0.185105256528496
CT2	      -0.139397152213057       0.212767627644579      -0.117868085163987
HA	      -0.686469724262936       0.748968305408749        1.14673354243674
HA	     -0.0215154528959697       -1.07435410081401       0.647716923533244
CT3	      0.0244500250161366      -0.105663818539905     -0.0287363560503063
HA	       0.544414549693583       -1.04442020753537       0.938105859950929
HA	      -0.236957974283365        1.20140524237538       0.336153257273156
HA	      -0.102427898166128       0.625364238838922      -0.211562526139245
C	      -0.396186519554731       0.387240333381435     -0.0422334290814813
O	     -0.0287568914901298       0.265905957572858       0.230122309288507
NH1	       0.112446521735077      0.0216539269934216      -0.386503025197532
H	      -0.735053372968873        1.15458049684832      -0.607845347735669
CT1	      -0.173694861035802       0.399107690825702       0.349586635064253
HB	     -0.0734175022108864       0.571198240269312      -0.642378358337505
CT2	       -0.13915538058667      0.0704337635475506       0.571199005265855
HA	      0.0525871604021053      -0.821952530059618      -0.346224426953674
HA	      -0.308386196149232       0.772228311122873      -0.718861452920293
CT2	      -0.163377860557936      -0.209938600330368     -0.0229254311012488
HA	      -0.299953138919745      -0.120768498063778       0.434428548414872
HA	      -0.463485079063085       0.277719755305049        1.50045310980819
CT2	       0.211309088879177     -0.0609195933535016       0.124529098820236
HA	      -0.131403316544909      -0.255255299748135      0.0582520760292715
HA	        -1.1217886294702     -0.0659461846742545       0.745343513142868
NC2	      -0.142719912539587     -0.0649052633436948       0.223543495957408
HC	       0.769033020411555        1.60373103465619       0.783898021508362
C	     0.00398059285610607     -0.0337666608102578       -0.14537671299284
NC2	       0.126773617763387       0.144918824565675      0.0341368448891153
HC	       0.551677377645542       0.103039862924521     -0.0851368708017704
HC	       -1.03970756998397       -1.60391334677486        1.31048461554036
NC2	       0.255223187901179      0.0177899060642122      -0.169802830994269
HC	       0.589888196200576       0.795248515685885        1.00774013759156
HC	       0.749745455935822       -1.08361182067522       0.164323585520868
C	      0.0280538548170622     -0.0612214560903222      -0.165037273438308
O	      -0.137956176555926     -0.0671160227709386       0.128202365074818
NH1	      -0.277335219230777      -0.138380912739288       0.157149948127818
H	      -0.223787571397319      -0.499197154975052        0.95180637828339
CT1	       0.395576647338281      -0.225652928621462       0.118621980746748
HB	      -0.651469162871499      -0.744124518452359       -1.48547206050899
CT2	     -0.0137319627399363       0.170291769987759      -0.022474117899249
HA	      -0.396120847060811      -0.170591405879534      -0.255608482729407
HA	      -0.433631212545744     0.00668720232636004       0.361944133291155
CA	      0.0233626804524365       0.276716502255735      0.0544046395022173
CA	     0.00782623932235272       0.207785837420867     -0.0827897583363446
HP	      -0.439377334984654        1.16339486718575       0.944975036789746
CA	      -0.122939847455887     -0.0524660041637718      -0.118788118595304
HP	       0.619121507768583      -0.742260875866531       0.280966940122066
CA	      -0.163343349419459     0.00220208427232168       0.249924842124409
OH1	        0.29809839596461      0.0361929255452887       0.405267446092254
H	       0.479964399531013      -0.483636476543382       0.466858959045621
CA	       0.122409279019985      0.0121398526755638       0.116585868815406
HP	       0.819755997055338       0.253856555798043     -0.0301106996560891
CA	       0.423701903524477       0.143809514517027       0.323010158362868
HP	       0.254394708705549      0.0269364633589715       -1.57118909941636
C	      0.0172294412113382      -0.156633160129951      -0.188738728056257
O	     -0.0996902651398069      -0.163442728671927     -0.0666750139211109
NH1	    -0.00778832504425629       0.066523666891312    -0.00511293355082986
H	        1.02824849674886       0.118542879170707       0.253599924799554
CT1	       0.425670297033593       0.417773377430184       0.164405621792001
HB	       0.126714920861433        1.46249538986452       0.489376441648988
CT2	        0.18230993112824     -0.0837632963889347      -0.226290708579321
HA	       -1.47097402102041       -1.10645501573187       -1.14435830019158
HA	       0.417942870088368      -0.447827710242126        1.41223591187434
CA	       0.070524553506712      -0.194283774650128       0.214778613398827
CA	     -0.0464694392842693     -0.0987932936780807      -0.310504068132662
HP	         1.1489406689519      -0.376295038798997      -0.539828794260783
CA	     -0.0836935291199809     -0.0936866175292087      -0.076325769374946
HP	        2.12957989203052      -0.544371783642009      -0.567849334662184
CA	     -0.0514108534101485      -0.162248658519879       0.120814619158023
HP	      0.0181010832425131      -0.422841190099853       0.589909278486826
CA	      -0.373198682009583       0.477085455476155       0.119987559636142
HP	      0.0314447680124713        0.24596899709711       0.273805387445365
CA	      -0.200505070363797      -0.170465739514755      0.0096294304642061
HP	        1.16125272909888       0.493369159741249      0.0745394756685969
C	       0.400066527713734      -0.192680322129528      0.0599202020825704
O	      -0.136728734098716      -0.163057524775446       0.057570452903694
NH1	      -0.495816067680508      -0.262835892987195       0.166334263494187
H	       0.274958395187101       -1.22523034898236      -0.630827603758713
CT1	      -0.171625275092956      -0.149119327548495     -0.0125659130000421
HB	        0.56979109127219       0.290270969624544      -0.411737793519692
CT2	       0.140841013561572      0.0481762853446273      -0.205592471864875
HA	      -0.439494068431291      -0.471034577207662       -1.34627899598379
HA	       -0.46007333221753       0.238572706275852       0.103072721899878
CA	       0.178313450860961      -0.026397540937934      0.0928278086792828
CA	     -0.0554699442836061        0.19252186455172       -0.15434590456073
HP	       0.324861820733988      -0.949569116180087      -0.973183441766815
CA	      0.0643992148335163       0.114692272275145     -0.0214577166735099
HP	        1.01681014120012      0.0841160675862963      -0.140500460869812
CA	       0.233240872993825      -0.298843242056932       -0.25509675949346
OH1	      0.0723020144287092      0.0163252873526566      -0.313224248120758
H	      -0.615821233517279      -0.473412645346541       0.648228269817295
CA	      -0.301031478740883      -0.241740651361869      -0.250543774491231
HP	       0.207546739218599      -0.298883149408323   -0.000942566400182073
CA	      -0.295829624301187      -0.154056386475805       -0.31529723842285
HP	       0.190978279443149      -0.607112169274806        1.33483061002248
C	      -0.115025279206332     -0.0757946027922337       0.165377761530903
O	      0.0933868098280866      0.0075691158739584      -0.141301998327635
NH1	     -0.0631214651840575      -0.164458939147519       0.509148003431707
H	      0.0286045448009671      -0.584896138521908       -1.26666905920843