1101
!ProtoMol (built on Dec  4 2007 at 10:46:51) generated this XYZ file by tcickovs. Time : 125, step : 250, minimal Image.
NH3	        14.5175351607981       -5.31375967560653         11.400304465182
HC	        15.0511114361158       -4.37824046879987         11.600293894375
HC	        15.1650492869603       -5.97589725532484        10.8844631454008
HC	        14.1957429730038       -5.74671166980647         12.311248713947
CT1	        13.3742900116714        -4.9860745532283        10.5497241906705
HB	        12.7848012251658       -4.44442083015054        11.2422389651189
CT2	        13.8293222014466        -4.1907413291933         9.3695355159992
HA	        13.0054317670918       -3.80873148686818        8.74981828373146
HA	        14.4231383350312       -3.30980198023153        9.81449961486246
CT2	        14.6679872176567       -4.95763319982443        8.33627436496969
HA	         15.425236156502       -5.53699463684713        8.88517074200461
HA	        14.0747863539066       -5.52468637309898        7.64426866815989
CT2	        15.3775547527103       -4.03567699300778        7.30886144218386
HA	        15.9092802919582       -4.64220786526275        6.53966578187432
HA	        14.6632502065822       -3.40560976370859         6.6430116046575
NC2	        16.2778140375085       -3.15647866127125        8.08908346059265
HC	        15.8859178907284       -2.26592775084628        8.45605880496876
C	        17.6093823432576       -3.31753550319422        8.38074801344927
NC2	        18.2140636313986       -4.46111577125088        8.17820809395228
HC	        18.9433703438594       -4.62055133423497        8.86433325646306
HC	        17.5792264370866       -5.17059230222536        8.02873952059171
NC2	        18.3158100571237       -2.35343506020604        8.95172661638439
HC	        19.2418155870477       -2.57204126667648        9.31318863203988
HC	        17.8825189765597       -1.45493329005807        9.19245904472878
C	        12.6246995804851        -6.1704614439999        10.0223743056509
O	        13.2720821357004       -7.19167016387513        9.83896565851841
N	        11.3114934645468       -6.07736395451142        9.80808734915627
CP3	        10.4345199082038        -4.8988037542133        10.2274847824067
HA	        10.6372871725921       -4.50279447409171        11.2504873942019
HA	        10.5663145075089       -4.09044938674462        9.47599695479488
CP1	        10.5769759596135       -7.02618911520312        8.95877559188764
HB	        10.9419518923984       -8.05972151724855        9.07068872670966
CP2	        9.08636783248135        -6.7784172854064        9.28263484934225
HA	        8.67850362113825        -7.5161399300491        9.98984883247429
HA	        8.36667640927957       -6.63456971088404        8.44277418286378
CP2	        9.05089629127483       -5.44350667651564         10.153314729837
HA	        8.66258219405736       -5.70680633638233        11.1645811614762
HA	        8.45580822941073       -4.76846143509361        9.53929215392771
C	        10.7318378151154       -6.85056281647571        7.43657110019992
O	        11.4241017268283       -5.94344711773899        6.98095307933874
NH1	        10.0063364976805        -7.7437221252843        6.70656789314317
H	        9.32021470685167       -8.30250975998667        7.23748759358863
CT1	         10.150491566756       -8.04318982403626        5.34572066129879
HB	        11.2694822291303       -8.32813778110689        5.14649252125722
CT2	        9.17826741298786       -9.23525697985287        5.10323632976377
HA	         9.1949369147138        -9.6262324491474        4.00390951047421
HA	        9.49759756139369       -10.1047659675855        5.69137653382431
CC	        7.67644637577589       -8.94694349270277        5.43086347193656
OC	        6.86324416599332       -9.12598220418339        4.51315824059853
OC	        7.27955967195366       -8.52420277564534        6.57710565234638
C	        9.88809295518117       -6.84865762463786        4.46602087272137
O	        10.5546879134378       -6.56393768645883        3.49104124981422
NH1	        8.76420497585052       -6.23503020329008        4.82947775808206
H	        8.29117929924398        -6.8855811219617        5.50377412641336
CT1	        8.01725056241424       -5.31383197935401        3.95449525429767
HB	        7.97100079492399       -5.84967117964776         2.9402771145997
CT2	        6.59497367399866       -5.06710870018024        4.47246735593504
HA	        6.19582383014496       -4.35027700585916        3.74263914453429
HA	        6.06155852988109       -6.01372797471384        4.51387707535339
CA	        6.35455335366053       -4.50835922211144        5.88051295331032
CA	        6.48012834376205       -3.16434145044806        6.15447345576957
HP	        6.74455049082911       -2.49796879887391        5.44714535703924
CA	         6.4115338483478       -2.71684582713707        7.48374771570007
HP	        6.45926157076433       -1.66213271585375        7.76956344271206
CA	        6.06985909667318       -3.57136460676365        8.53622811943013
HP	        5.98033249937516       -3.19982766197961        9.53575953458306
CA	        5.99585544780296       -5.43986903180252         6.9267039886618
HP	        5.86134875195036        -6.4904549169605        6.70126271289599
CA	         5.8157539252074       -4.93791664920061         8.2914432595805
HP	        5.71479379884842       -5.57597772098301        9.12332932211868
C	        8.77323426866118       -4.00086750250264        3.69580511835811
O	        8.64759628005785        -3.4214609160859        2.67066153453109
CT2	        11.4140186393238        -2.5774250790221        5.80687032771095
SM	        10.3927192574242       -2.36668043412122        7.31805557101926
NH1	        9.68070498863805        -3.6982732283555        4.60791492314596
H	        9.63637698672498       -4.27225646329351        5.45667006863177
CT1	        10.5540108557351        -2.5785938607981        4.58183159580286
HB	        9.99125315235847       -1.64050033121732        4.52085348831718
HA	        11.8141226889128       -3.60686624332123        5.87237459809509
HA	        12.2853159650833       -1.83398979008711        5.83603941357551
C	        11.4643322915184       -2.66712682426103        3.39591454559187
O	         11.919705736155       -1.65336956503797        2.89292773986845
NH1	        11.6912538221981       -3.85960660749665        2.70255818975331
H	        11.2468700470299       -4.69221517621797        3.10625288798393
CT1	        12.3233390913444        -4.0582993004215        1.39614999538537
HB	        13.2534406254975       -3.52660843467081        1.35932769910848
CT2	        12.6590147974166        -5.5663685470242        1.20152726118988
HA	        11.6636014811629       -6.11408112360601        1.13624691788257
HA	        13.2023882038739       -5.60345635718107         0.1645520162149
CT1	        13.6933105267753       -6.20363108621654        2.24891892367892
HA	        13.4160153925385       -5.84505500446353        3.24721123267689
CT3	        15.0503784600661       -5.49206885343366        2.16003224551089
HA	        15.5988625494713       -5.56787590513429        1.20689523949425
HA	        14.9928962939275       -4.45761234859489        2.56934923392903
HA	        15.7330280983781       -5.94729225844158        2.92795786265621
CT3	         13.863636467328       -7.79027874358252        2.09802688009026
HA	         14.214579006232       -8.15415962866922        1.07693936800207
HA	         14.629885382201       -8.07461317225748        2.86423952385448
HA	        12.8944043270768       -8.23189164281157        2.40630048981913
C	        11.6275363717659       -3.50040430514925       0.196168759250217
O	        12.3042597567041        -3.2308127228708      -0.811324252489494
NH1	        10.3015496783578        -3.3257644793198       0.292621880829219
H	         9.8569469211601       -3.66233234396155        1.12293834894932
CT1	        9.53503723022119        -2.8044408658523      -0.792016322931041
HB	        9.65909110182787       -3.52156174564817       -1.54281843061341
CT2	        8.02608168928814       -2.58725145141723      -0.412339340749463
HA	        7.99323617191464       -2.00975451060132        0.52325266072348
HA	        7.52491650989018       -1.91693143447124       -1.09367621062475
CT2	        7.17874408814115       -3.87153522441257      -0.306351087300396
HA	        7.29160766787336       -4.49020613776013       -1.24327621282653
HA	        7.57585128701112        -4.4985337085062       0.503089795668145
CC	        5.70043260631905       -3.65831584180065     0.00125213975953707
OC	        5.26845108571045       -2.52499351963954       0.290496904251788
OC	        5.01694680821856       -4.68073465734114      -0.246155726573922
C	        9.95776106737459       -1.43477534849546       -1.24942181046923
O	        9.89365853477338      -0.537954693581819      -0.448355137890675
N	        10.1461215348792       -1.23983846884558       -2.59637776995976
CP3	        10.5061815413733       -2.32132781159594       -3.54269364564807
HA	        11.2407127400729       -3.04043913609034       -3.08274894501602
HA	        9.57238470627972       -2.83343421486305       -3.71623210165108
CP1	        10.1899491097977       0.119033715054281       -3.22197635646031
HB	         11.055130136146        0.60863724163074       -2.79939359307338
CP2	        10.4005002965477      -0.190177026296437       -4.73085918555151
HA	        11.1118623589699       0.480576402440362        -5.1837572170534
HA	        9.48840590387789        -0.2075611279074       -5.27836352741379
CP2	        11.0396223327357       -1.60920055148592       -4.82411850593108
HA	        12.1565373270973       -1.55199915049682       -4.77474266619652
HA	        10.7831784289523       -2.16435206298128       -5.77522080395165
C	        9.02239659660843       0.981175792547694       -3.03944321590428
O	        8.04682260686343       0.401339463819868       -2.68773460545495
N	        8.95767905625395        2.29775681152225       -3.22750151231245
CP3	        10.1671383225299        3.07859960530668       -3.35338824223463
HA	        10.7100337108199        2.86834874190211       -2.46218732400518
HA	        10.7050902777018        2.86936216079572       -4.32860766363629
CP1	        7.76243625060495        3.03803380159356       -2.74390990245018
HB	        7.42932592751627        2.65840242821837       -1.75073299537545
CP2	         8.3342755016774        4.56503004604178       -2.53377968601352
HA	        8.63344197817789        4.77932721053094       -1.46659757426132
HA	        7.70403749039536        5.40225003496897        -2.8522366779939
CP2	        9.68390351199468        4.54352099516844       -3.33413658432729
HA	        10.4391089211588        5.16786229566107       -2.79820433475453
HA	        9.49369696737397        4.94153808363296       -4.35854817374198
C	        6.55308511718253        3.01403508326832       -3.62028710159613
O	         6.5270776876097        2.60174648692373       -4.77025029383197
NH1	        5.43634433411029        3.45590185059271       -3.10004843361568
H	        5.39492621696974        3.72869341498713       -2.11461360193153
CT1	        4.14259885549822        3.44687397200727       -3.82209933235001
HB	        4.23522758898643        3.24539678438933        -4.8744631081894
CT2	        3.24066732228801        2.34318070909222       -3.14085426834416
HA	        3.59880059202549        1.31945132010634       -3.16696213101637
HA	        3.13473298358255        2.53588741593111       -2.07997927556014
CA	        1.86721664254316        2.29160576944719       -3.77202726512038
CA	        1.75773686823166          1.682842515452       -5.06030721980381
HP	        2.53356854220704        1.25004746676745       -5.60101271240285
CA	       0.554819204570359         1.5396910796523       -5.60659159380675
HP	       0.400024214804949       0.988444300868344       -6.52658199766834
CA	      -0.650216433256149        1.93846208590341       -4.97697366043698
OH1	       -1.91485317735623        1.86230148451811       -5.60314800624841
H	       -2.63910690110465        1.86505642441886        -4.9957538906862
CA	       0.649895612727272        2.67892804086251        -3.1211507321768
HP	       0.603073324544911        3.19675316668041       -2.17550736077719
CA	      -0.575094474240928        2.50350298737816       -3.69148378755838
HP	        -1.4718313541729        2.88906290338168       -3.17696188351768
C	        3.43657306434993        4.78509896186756       -3.66694547793149
O	        3.03461902373632        5.16881074786464       -2.59875524685991
NH1	        3.29577567768495        5.53591567353935       -4.78845281822859
H	        3.69939512123278        5.22192354530037       -5.65109094174891
CT1	        2.60541339470004        6.86505126529589       -4.67476957936371
HB	        2.75314656239331        7.26924343074983       -3.75699435274559
CT1	        2.97510291644021        7.84092754088289       -5.70696931690073
HA	        3.00833660991345        7.30738462394863       -6.65770017910656
OH1	        4.24938956329228        8.40382068607897       -5.53206345319689
H	        4.18894795952602        8.92582112499143       -4.75553761453314
CT3	        2.05036381696406        9.05603831633587        -5.7031570505823
HA	          2.365105524161        9.63539320348447       -6.58370908149204
HA	        0.96827264553591        8.84604332919781        -5.9553211117366
HA	        2.19590825111245        9.62956284016662       -4.81566669549396
C	        1.14521769489689        6.46312270112329       -4.81677638940074
O	       0.269343173452217        7.01237691276606       -4.11200796223292
NH1	       0.739967733072189        5.62048211610506       -5.80363504051163
H	        1.46991560472132        5.33987251258018       -6.47484180096847
CT2	      -0.629280934202884        5.19583930738201       -6.00897445686281
HB	      -0.975723467367549        4.91903911277326       -5.04659045027707
HB	      -0.500792897385846         4.2928881217444        -6.5997412274803
C	       -1.53151241050669        6.13747826655068       -6.69568878222845
O	      -0.979588029474426        6.93452953277646        -7.4217274046671
N	       -2.82387884924454        6.06899983491652       -6.76991316584941
CP3	       -3.58822977630545        4.94082868588764       -6.15923694708072
HA	         -2.966906006116        4.06918902261948       -6.06703467386334
HA	       -4.01792135172099        5.38094122074248       -5.20136541920421
CP1	        -3.4405522215814        6.64577880485804       -7.92875801044638
HB	       -2.88314870084964        6.37685184135487       -8.80362065850258
CP2	       -4.90252010964169        6.11850136055435       -7.84801742093232
HA	       -5.40504152899241        6.05932032275382        -8.8598088343047
HA	       -5.56515924924426        6.54548492146935       -7.08908819801599
CP2	       -4.70534223498595        4.69625245473985       -7.22712186485136
HA	        -4.1934556946238        4.02646024592649       -7.95918259557495
HA	       -5.66782747430805        4.22733388496905       -6.87362217387211
C	       -3.57903695082117        8.09662024566177       -7.81479266451892
O	       -3.63134493147909        8.75716042134131       -8.86432288040158
CT2	        -5.1552222937257        10.3446753025344       -5.15224421908216
SM	       -6.74535794686174        9.40973751439032       -4.99793600975215
NH1	       -3.86228740106253        8.62736404101634        -6.6469464379593
H	       -3.87648755924245        8.14836796651458        -5.8272790202674
CT1	       -4.25902648399773        10.0613562599678       -6.43572725239564
HB	       -4.89965231553567        10.2643273787842       -7.28269015015789
HA	       -4.49249503685384        10.2689303260331       -4.24680227642602
HA	       -5.55436364011489        11.3931788522468       -5.18132182996205
C	       -3.16390092100815        11.0060239827491       -6.42780258339603
O	       -1.99656146681066        10.6389390155356       -6.49875927741582
NH1	        -3.3919352749593        12.3207457853149       -6.56468965373107
H	       -4.37628827263478        12.5741251594339       -6.67827022688798
CT1	       -2.26960574252292        13.3373498090045       -6.74779325979921
HB	       -1.37208100070433        12.8176091387925       -6.44626520137277
CT2	       -2.30093389920719        13.9937570954129       -8.20222908853797
HA	       -3.25144177359761        14.5116164534758       -8.31887186983758
HA	       -1.54618677099661        14.8176454715331       -8.17694915817579
CT2	       -1.78519544910119        13.0306202575761       -9.34267465088523
HA	        -1.0629465919675        13.6394484135408       -9.96195898501653
HA	       -1.10990233186297        12.2213158010777       -8.87217464431997
CT2	       -2.95079694670976        12.4168446807699       -10.1800871445506
HA	       -3.67053867873956        11.8346776914593       -9.60676621016335
HA	       -3.48770819021275        13.3744551897199       -10.4552626056159
CT2	       -2.55995098354367        11.7023420993207       -11.4998650513872
HA	       -3.51806410451055        11.4689562619486       -12.0909137698323
HA	        -1.9002241321222        12.2634327761137       -12.0981738150458
NH3	       -1.97436519091478        10.3737262305368       -11.0996323065822
HC	       -1.99068444335307        9.57404641866911       -11.8115703799684
HC	       -0.98263208498697        10.5359364860693       -10.7490400680876
HC	       -2.35669854664195        9.99411000947293       -10.2416064064863
C	       -2.31852573027346        14.6222194394118       -5.80244483688446
O	       -2.18629989834653        15.7286234620499       -6.24563820253014
NH1	       -2.28172715969663        14.3119992607416       -4.47936085979505
H	       -2.55511045181279        13.4785698431196       -4.09076430846662
CT1	       -1.80039490553861        15.2779836334591       -3.54416760881364
HB	       -1.95957713429151        16.3039108117272       -3.85574401537893
CT3	       -2.45912661527299         14.994072832461       -2.17698795766749
HA	       -3.49140814379916        14.5858373473128       -2.42358955972858
HA	        -1.9400490819763        14.2066411324146       -1.56373481891714
HA	       -2.52307510001735        15.8459574887043       -1.48629357026353
C	      -0.268877700766304        15.3223856787592       -3.49199670598902
O	       0.511485420759468        14.4883285363629       -4.05444337352496
NH1	       0.239064536658885        16.3098076178695       -2.74089447475104
H	       -0.39152274381852        16.9423939865505       -2.25900132722431
CT1	        1.64677701598292        16.4384329870253       -2.49705860666346
HB	        2.22536492664219        15.9669756012166       -3.25750468230795
CT2	         1.9798862524606        17.9159097180423       -2.52883705514505
HA	        1.52867590553318        18.4504157452731       -1.69661061804739
HA	        3.06949706495965        18.0179710633604       -2.43407644058266
CT2	        1.51940002665128        18.7348795623187       -3.77608827167595
HA	        1.69065101353408        18.2185074543779       -4.72986819310549
HA	       0.438787050020089        19.0326347689338       -3.72005625753813
CT2	        2.37840669842894        20.0535301168526       -4.00662437236797
HA	        2.00785973533834        20.5672227311687        -4.8662371306937
HA	        2.28959570267897        20.6554740210785       -3.07764075233457
NC2	        3.85046090621345        19.6029420964348       -4.10570590079402
HC	        4.38384529424905        19.4492004800457       -3.29268395367625
C	          4.339395549743         18.907932692265         -5.159156330261
NC2	        5.37010997368023        18.1385812566466       -5.03843904123835
HC	        5.83937615673039        17.7296187491393       -5.83315758631981
HC	        5.80930541792279        17.9176792897882       -4.15755011260971
NC2	        3.71312163019758        18.9128096177062       -6.33285285736018
HC	        4.11473849511316        18.3489067700119       -7.03902324323435
HC	        2.95508819546186        19.5408346958747       -6.56377332257452
C	        2.13189967003861        15.8804882568386       -1.14746807096126
O	        3.10179117968834        16.4013820748523      -0.544316939875683
NH1	        1.56893703393569        14.7901902428813      -0.601283169015872
H	       0.791663947392535        14.2905831136545       -1.02663854831844
CT1	         1.8902497366964        14.4627907627987       0.777522288139995
HB	        1.83349874573067         15.427404144141        1.22620910773999
CT1	       0.854265435828445        13.6295135984108        1.52456195928893
HA	       0.974730634248829        12.6584070371208        1.04952588337389
CT3	        1.14409753093711        13.6023381713927        3.07936070443798
HA	       0.446524048590534        12.9343381393063        3.68782640478744
HA	        2.23750494690177        13.3222114879516        3.29906124078864
HA	       0.940692114508191        14.5033528517585        3.60864615522449
CT2	      -0.573808754451476        13.9893939082441        1.24145698609927
HA	      -0.789266539630894         15.073236534825        1.39911712526238
HA	      -0.881898489512673        13.6507672566982       0.268717846538292
CT3	       -1.66521741847426        13.3206809048891        2.07637375214694
HA	       -2.64615668442576        13.6147998766102        1.63292628547775
HA	       -1.57465257525714        12.1687547459411        2.10763501651307
HA	       -1.69073722421079        13.5698265116339        3.16560040976826
C	        3.32818127040403        13.8225684959832       0.949040548348673
O	        3.61323406232417        12.7035797304074       0.577608121790821
NH1	        4.23779498077055        14.6038506877132        1.55534028931135
H	        3.89741884009278         15.537775167149        1.76829581569027
CT1	        5.54732570224157        14.2180991132827        1.92077397470178
HB	        6.07103269506945        13.7870105400688        1.04672740117431
CT1	        6.59499335348107        15.3249477029951        2.34326368090239
HA	        6.18059467056972        15.6980565006974         3.2745979531745
CT3	        7.98532532616125        14.7153970008558        2.57580976105125
HA	        8.74374474624679        15.4507056296611        2.97380589779754
HA	        8.00636290402959        13.9180697468411        3.29176110034695
HA	        8.46390219101189        14.2849280030552        1.68030485310334
CT2	        6.72592394990635        16.4991876513719        1.30092494652669
HA	        5.69162426382406         16.956683326181         1.1493334496471
HA	        7.28334661116978        17.3338975266999        1.78175406643684
CT3	        7.31546261225285        16.1730122688997      -0.059426595256301
HA	        6.89274128897042        16.8787017750911       -0.83390793267212
HA	        8.39645196553018        16.2791265210277       -0.12549228653408
HA	        6.95613388906229        15.1987358437148      -0.300537066770995
C	        5.41797870772447        13.1165645466633        2.99378975916646
O	        4.82731714873281        13.1880933901285        4.06016730275738
NH1	        6.04764277445502        12.0097373878125         2.6514914212656
H	        6.44972862786922        11.7589930921454        1.79879357753181
CT1	        6.17704298355111        10.8407969810944        3.54294302849214
HB	        6.12134539044889        11.1320575403369        4.59744680433486
CT2	        5.11852354993136        9.77656458998523        3.30173835022093
HA	        5.11018103802275        9.52878731308192        2.21346040487935
HA	         5.3565104228047        8.80069882256052        3.76940331573203
CT2	        3.62065241616271        10.2566245297225        3.64371763547294
HA	        3.39541095055275        11.2966444098731        3.25188872397809
HA	         3.0706019719304        9.45435260990528        3.05967486552236
CT2	        3.25762446965057        10.1813444201284        5.12758295725574
HA	        3.35912016378447        9.14560623620982        5.50582025783814
HA	        3.94049471969348        10.8833403152017        5.67042685051138
NC2	        1.83189394921494        10.6418521053316        5.33854771335765
HC	        1.77667464184149        11.5617107992938         5.7534215740398
C	       0.765150060524425        9.89584296795847        5.06062670255074
NC2	       0.758638452127829        8.68182957923404        4.57960742828172
HC	      -0.179285611592443        8.37985487976981        4.39728239023265
HC	        1.70334688932817        8.18577014367673        4.62420716466743
NC2	      -0.381095495530525        10.4948896404562        5.32540593788314
HC	       -1.22381061552437        10.0353173976657        5.08206560712421
HC	      -0.399799756357405        11.3201791075294        5.86666403787763
C	          7.535512637058        10.1236224072667        3.41182745840331
O	        8.35709397242885        10.4962954654597        2.55616928096209
NH1	        7.75654499737638        9.21740801903429        4.31120951726956
H	        6.98479008991652        9.08321499913694        4.99571881396756
CT1	        9.04053831418093        8.55480513706515          4.420560757738
HB	        9.75096719366045        8.89417761299973        3.70791295606004
CT2	        9.53768725715984        8.84851735297482        5.91313082950402
HA	        8.77234235367314        8.78901107190763        6.66769224615673
HA	         10.291153544427        8.09561222762592        6.15194317006493
CA	        10.2689617393227        10.1449730538377        6.04938648669674
CA	        9.58134664070354        11.3287255897512        6.18496344065994
HP	        8.53034185142997        11.3168055556674        6.18317899528885
CA	        10.2822990427386        12.5330728137687        6.45924369396853
HP	         9.6121030438658        13.3458532832054        6.76966217904587
CA	        11.6508845547352        12.5587715678511        6.40550623632728
OH1	        12.3148293897471        13.6626838063155        6.84720681192818
H	        11.6972049152591        14.4043967921821        6.96843112958903
CA	        11.6683127517985        10.1871136479729        5.94637403676315
HP	        12.2212762485799        9.22869330702722        5.75631377751444
CA	        12.3795431670406         11.379574098089         6.0482754451462
HP	        13.4237432210545        11.3725144091969        5.95499717810357
C	          8.961053564528        7.07674658212512        4.18685671034983
O	        7.95561908995625        6.40892192037989         4.4090247874479
NH1	         10.128035724189        6.49098517463137        3.78151641684054
H	        10.9635514772831        7.05652020451405        3.65789370568649
CT1	        10.2261158523752        5.04739966677531         3.5052759175176
HB	        9.51614716935665         4.5285813838518        4.15433083078365
CT2	        9.84704543312085        4.67765800847488         2.0291403248707
HA	        9.70842853345339         3.5919684208495        1.97381797115326
HA	        8.91309662544328        5.19114802906994        1.84855413337238
CA	        10.8445795033926        4.92872540416737       0.888348089438809
CA	          11.33487673265        3.94966137376176       0.107946076061916
HP	         11.030852821161        2.99514897918567       0.314995331232419
CA	        12.1903548519199        4.12845484619799      -0.977461250432451
HP	        12.4385198275773        3.25008933827756        -1.5654139977994
CA	        12.6183287705717        5.42099349663521       -1.26777720898993
HP	        13.4758761057621        5.57431766168966       -1.96423564662306
CA	        11.2323827446875        6.24195484054106       0.546888296572524
HP	        10.9229711905041        7.13309183889416        1.18816025565538
CA	        12.1196446879472        6.45950485314722      -0.480132746364582
HP	        12.4364040689402        7.45237303534255      -0.648920722761736
C	        11.6629358201018        4.64025049040309        3.75607342332657
O	         12.608222009039        5.42087494654742        3.73255998299958
NH1	        11.8457864669111        3.26331812477248        3.93919272175153
H	        11.0396883571078        2.66473082065703        3.88517243860794
CT1	          13.13979783516        2.66661002244765        4.16749767963412
HB	        13.8462204964067        3.40860827504215        4.43928296924539
CT2	        13.1936952804943        1.55671933316004        5.23865569541497
HA	        12.7848061652473        2.03910855059275        6.12645205331646
HA	        12.5292439855399       0.726473365175459        4.82461102804735
CA	        14.5943687385102       0.989818272324886        5.58105630760252
CA	        15.0344725433903      -0.130654286257559        4.87146937426765
HP	          14.47933897383      -0.595630529949447         4.0681663370348
CA	        16.2972205687999      -0.578271758860924        5.18627436540504
HP	        16.6288150712775       -1.35371424704723        4.57852741316377
CA	        17.1235420959759     0.00134820811391971        6.13312814338071
OH1	        18.4771906017526      -0.376004617170429        6.34014137382264
H	        18.9693700477706       0.456149938718032        6.49410717079333
CA	        15.3226200468509        1.44367225681058         6.7454418846234
HP	        14.8059765447939        2.22637767022479        7.27125462565558
CA	        16.6190866664532        1.02446886486533        6.94137623210269
HP	        17.2256389395391        1.42662546772452        7.72064667625405
C	        13.6066157839119        2.14313610170557        2.83741579116741
O	        12.8565150487498        1.73622901408388        1.96188207146951
NH1	        14.9352499885473        2.22277792395736        2.62614012177403
H	        15.6149884991157        2.41802335946531         3.3714928440613