22
!ProtoMol (built on Nov  1 2004 at 15:23:47) generated this XYZ file by victoria. Time : 10000, step : 10000.
EL	        52.0322561344831       -24.3647876996724                       0
EL	       -1.19837389511496        42.3427842693392                       0
EL	       -37.0967295640909        2.35996735361272                       0
EL	       -30.6799676738005       -22.6019609203018                       0
EL	       -19.0753021888413        6.29562031621002                       0
EL	        -40.376703352331        32.3507920916008                       0
EL	        70.9100805060776       -8.01794928764176                       0
EL	      -0.979994946577272       -65.1247574880524                       0
EL	       -41.6702608920917        46.5300621755941                       0
EL	        33.3133117926766     -0.0322156256551367                       0
EL	        4.55455702939249       -20.8577430779508                       0
EL	        20.1065793571367       -28.2284728840525                       0
EL	       -4.36843998165149        -5.2563147852884                       0
EL	        6.70075141007279        4.17632039013016                       0
EL	       -20.8233022616443       -10.8587810026762                       0
EL	       -23.3873576374335       -13.6568068899256                       0
EL	       -8.92037291091483       -19.0348497084483                       0
EL	        50.5527189731999        -8.7507429947295                       0
EL	        26.9781190770658        3.20685488607864                       0
EL	       -54.8269524391554        36.3289429372654                       0
EL	        -24.214946835271       -8.61922233063877                       0
EL	        5.99493097684109       -25.7863795644929                       0
