22
!ProtoMol (built on Nov  1 2004 at 15:23:47) generated this XYZ file by victoria. Time : 10000, step : 10000.
EL	        135.090647785044        164.105684180966                       0
EL	       -2.56476741366658       -1.39718420690235                       0
EL	        36.0957723428687        123.640036867929                       0
EL	       -30.6291380381664       -223.818485032951                       0
EL	       -364.663314327885        7.19011175297393                       0
EL	       -131.944295004171       -178.999787825427                       0
EL	        317.572552890265       -22.4234923761066                       0
EL	        48.0589694648291        244.451287944359                       0
EL	       -206.223737408631       -16.8640029946924                       0
EL	        -198.98473847251        -79.832140393177                       0
EL	        122.607782525271       -31.6788918220087                       0
EL	       -68.6944170021574       -93.2592508637039                       0
EL	        -267.04594031977        169.542971436142                       0
EL	        22.0675979032848       -109.741415430057                       0
EL	         3.9562019615141        53.1748222005685                       0
EL	        143.613435541071        227.791314780883                       0
EL	         66.011752978716        55.1081646932525                       0
EL	        129.213007312368       -167.412643769688                       0
EL	         -76.72107533623       -219.245152258102                       0
EL	        193.227795354918        193.043695188777                       0
EL	        160.315926599426        116.587136974759                       0
EL	        57.9807454226794        2.19717861980152                       0
